 argument  1 = NeAr3.3_aDZ_dtime.5.re



============================== echo of input deck ==============================
echo

permanent_dir ./per
scratch_dir ./scr

restart NeAr3.3_aDZ_dtime.5

rt_tddft
  tmax 3000
  dt 5
  load restart
  print charge dipole field energy moocc

#  mocap
#    expconst 1.0     # exponential constant for CAP
#    emin 0.07         # any MO with eigenvalue >= 0.5 Ha will have CAP applied to it
#    prefac 1.0       # prefactor for exponential
#    maxval 1000.0    # clamp CAP at this value (in Ha)
#    on               # turn off CAP
#    nochecks         # disable checks for speed
##    noprint          # don't print CAP value
#  end

end
task dft rt_tddft
================================================================================


                                         
                                         


             Northwest Computational Chemistry Package (NWChem) 7.0.2
             --------------------------------------------------------


                    Environmental Molecular Sciences Laboratory
                       Pacific Northwest National Laboratory
                                Richland, WA 99352

                              Copyright (c) 1994-2020
                       Pacific Northwest National Laboratory
                            Battelle Memorial Institute

             NWChem is an open-source computational chemistry package
                        distributed under the terms of the
                      Educational Community License (ECL) 2.0
             A copy of the license is included with this distribution
                              in the LICENSE.TXT file

                                  ACKNOWLEDGMENT
                                  --------------

            This software and its documentation were developed at the
            EMSL at Pacific Northwest National Laboratory, a multiprogram
            national laboratory, operated for the U.S. Department of Energy
            by Battelle under Contract Number DE-AC05-76RL01830. Support
            for this work was provided by the Department of Energy Office
            of Biological and Environmental Research, Office of Basic
            Energy Sciences, and the Office of Advanced Scientific Computing.


           Job information
           ---------------

    hostname        = atl1-1-02-010-14-1.pace.gatech.edu
    program         = nwchem
    date            = Wed Jan 11 13:29:34 2023

    compiled        = Thu_May_20_07:57:16_2021
    source          = /home/conda/feedstock_root/build_artifacts/nwchem_1621493927360/work
    nwchem branch   = 7.0.2
    nwchem revision = d613826
    ga revision     = 5.7.2
    use scalapack   = T
    input           = NeAr3.3_aDZ_dtime.5.re
    prefix          = NeAr3.3_aDZ_dtime.5.
    data base       = ./per/NeAr3.3_aDZ_dtime.5.db
    status          = restart
    nproc           =        1
    time left       =     -1s



           Memory information
           ------------------

    heap     =   13107198 doubles =    100.0 Mbytes
    stack    =   13107195 doubles =    100.0 Mbytes
    global   =   26214400 doubles =    200.0 Mbytes (distinct from heap & stack)
    total    =   52428793 doubles =    400.0 Mbytes
    verify   = yes
    hardfail = no 


           Directory information
           ---------------------

  0 permanent = ./per
  0 scratch   = ./scr


           Previous task information
           -------------------------

    Theory    = dft                             
    Operation = rt_tddft                      
    Status    = unknown                       
    Qmmm      = F
    Ignore    = F


           Geometries in the database
           --------------------------

       Name                              Natoms  Last Modified
       --------------------------------  ------  ------------------------
    1  Ne                                     1  Wed Jan 11 11:39:42 2023  
    2  Ar                                     1  Wed Jan 11 11:39:42 2023  
    3  dimer                                  2  Wed Jan 11 11:39:42 2023  

  The geometry named "dimer" is the default for restart



           Basis sets in the database
           --------------------------

       Name                              Natoms  Last Modified
        --------------------------------  ------  ------------------------
    1  ao basis                               0  Wed Jan 11 11:39:42 2023  

  The basis set named "ao basis" is the default AO basis for restart




                                NWChem Input Module
                                -------------------



                           NWChem Real-Time TDDFT Module
                           -----------------------------




 Summary of "ao basis" -> "ao basis" (cartesian)
 ------------------------------------------------------------------------------
       Tag                 Description            Shells   Functions and Types
 ---------------- ------------------------------  ------  ---------------------
 Ne                       aug-cc-pvdz                9       25   4s3p2d
 Ar                       aug-cc-pvdz               11       29   5s4p2d


  int_init: cando_txs set to always be  F
  Caching 1-el integrals 

            General Information
            -------------------
          SCF calculation type: DFT
          Wavefunction type:  spin polarized.
          No. of atoms     :     2
          No. of electrons :    28
           Alpha electrons :    14
            Beta electrons :    14
          Charge           :     0
          Spin multiplicity:     1
          Use of symmetry is: off; symmetry adaption is: off
          Maximum number of iterations:  30
          This is a Direct SCF calculation.
          AO basis - number of functions:    54
                     number of shells:    20
          Convergence on energy requested:  1.00D-06
          Convergence on density requested:  1.00D-05
          Convergence on gradient requested:  5.00D-04

              XC Information
              --------------
                     Hartree-Fock (Exact) Exchange  1.000          
                   CAM-Becke88 Exchange Functional  1.000          
                      VWN V Correlation Functional  0.190 local    
              Lee-Yang-Parr Correlation Functional  0.810          

           Range-Separation Parameters        
           ---------------------------
           Alpha           :  0.19
           Beta            :  0.46
           Gamma           :  0.33
           Short-Range HF  :     F

             Grid Information
             ----------------
          Grid used for XC integration:  medium    
          Radial quadrature: Mura-Knowles        
          Angular quadrature: Lebedev. 
          Tag              B.-S. Rad. Rad. Pts. Rad. Cut. Ang. Pts.
          ---              ---------- --------- --------- ---------
          Ne                  0.50       49          12.0       434
          Ar                  1.00       88          10.0       590
          Grid pruning is: on 
          Number of quadrature shells:   137
          Spatial weights used:  Erf1

          Convergence Information
          -----------------------
          Convergence aids based upon iterative change in 
          total energy or number of iterations. 
          Levelshifting, if invoked, occurs when the 
          HOMO/LUMO gap drops below (HL_TOL):  1.00D-02
          DIIS, if invoked, will attempt to extrapolate 
          using up to (NFOCK): 10 stored Fock matrices.

                    Damping( 0%)  Levelshifting(0.5)       DIIS
                  --------------- ------------------- ---------------
          dE  on:    start            ASAP                start   
          dE off:    2 iters         30 iters            30 iters 


      Screening Tolerance Information
      -------------------------------
          Density screening/tol_rho:  1.00D-10
          AO Gaussian exp screening on grid/accAOfunc:  14
          CD Gaussian exp screening on grid/accCDfunc:  20
          XC Gaussian exp screening on grid/accXCfunc:  20
          Schwarz screening/accCoul:  1.00D-08

  
 ***********************
 * Open-shell RT-TDDFT *
 ***********************
  
 
****************************** WARNING ****************************** 
  Schwartz screening tolerance is similar to the Magnus interpolation  
  tolerance--this may cause problems with convergence.  If  
  so, try loosening tol_interpol. 
********************************************************************* 
 
  
  
 Geometry               Atoms      Basis func.   Nuc. charge          Nuc. dip. mom.
 -----------------------------------------------------------------------------------------
  Ne                   1 ( 50% )    25 ( 46% )     10.00        0.00      0.00      0.00
  Ar                   1 ( 50% )    29 ( 53% )     18.00        0.00      0.00    112.25
 *dimer                2 (100% )    54 (100% )     28.00        0.00      0.00    112.25

=============== Geometry Initialization ===============
  Active geometry: "dimer"
  No linear dependencies
  Number of atomic orbitals    = 54
  Number of molecular orbitals = 54
=======================================================

 
 
             System parameters
             -----------------
     No. atoms              : 2
     Wavefunction type      : spin polarized
     No. alpha electrons    : 14
     No. beta electrons     : 14
     Total no. electrons    : 28
     System charge          : 0
 
 
               2e integrals
               ------------
     tol2e for real part of Fock matrix: 1.0000E-08
     tol2e for imag part of Fock matrix: 1.0000E-10
 
 
                    Propagation parameters
                    ----------------------
     End time (tmax)       : 3.0000E+03 au = 7.2567E+01 fs
     Time step (dt)        : 5.0000E+00 au = 1.2094E-01 fs
     No. time steps (nt)   : 600
     Progagation method    : 2nd order Magnus w/ self-consistent interpolation
     Exponentiation method : Adaptive contractive power series
 
 
                        Tolerances
                        ----------
     Zero / comparison / check tolerance  : 1.0000E-08
     Series convergence tolerance         : 1.0000E-10
     Interpolation convergence tolerance  : 1.0000E-07
     Reqd no. zero terms in series        : 3
     Reqd no. zero terms in interpolation : 1
 
 
                Output and checking parameters
                ------------------------------
     Quantites to print : messages, dipole, field, moocc, energy, charge
     No. print points   : 600 (once every 1 time steps)
     No. checks         : 10 (once every 60 time steps)
     No. restart points : 100 (once every 6 time steps)
     Checking level     : 1 (checkpoints only)
     Profiling          : No
 
 
 Dipole and quadrupole matrices
 ------------------------------
     Center of mass = ( 0.0000E+00,  0.0000E+00,  4.1566E+00)
     norm[D_x]  = 1.9543E+00
     norm[D_y]  = 1.9543E+00
     norm[D_z]  = 6.2361E+00
     norm[Q_xx] = 1.4071E+01
     norm[Q_xy] = 4.6904E+00
     norm[Q_xz] = 1.2187E+01
     norm[Q_yy] = 1.4071E+01
     norm[Q_yz] = 1.2187E+01
     norm[Q_zz] = 5.2960E+01
 
 
         Applied fields
         --------------
     (none specified)
 
 
        Excitation rules
        ----------------
     (none specified--system will not be excited)
 
 
                              Open shell propagation
                              ----------------------
 
 
 Initial state: Imported open shell MO eigenvectors
 --------------------------------------------------
 
****************************** WARNING ****************************** 
  Starting movecs not specified--trying SCF output: 
   ./NeAr3.3_aDZ_dtime.5.movecs 
********************************************************************* 
 
 
   Vector      Occupation     Eigenvalue [au]
 --------------------------------------------
         1        1.00       -1.15190107E+02
         2        1.00       -3.10825329E+01
         3        1.00       -1.12186176E+01
         4        1.00       -8.76997306E+00
         5        1.00       -8.76997306E+00
         6        1.00       -8.76996448E+00
         7        1.00       -1.54576711E+00
         8        1.00       -1.05169000E+00
         9        1.00       -6.49604957E-01
        10        1.00       -6.49179038E-01
        11        1.00       -6.49179038E-01
        12        1.00       -4.95334864E-01
        13        1.00       -4.95334864E-01
        14        1.00       -4.95097278E-01
        15        0.00        7.96129275E-02
        16        0.00        1.07948937E-01
        17        0.00        1.10356988E-01
        18        0.00        1.10356989E-01
        19        0.00        2.18577397E-01
        20        0.00        2.37862036E-01
        21        0.00        2.37862036E-01
        22        0.00        2.86054196E-01
        23        0.00        4.28292979E-01
        24        0.00        4.28293294E-01
        25        0.00        4.37864464E-01
        26        0.00        4.37864464E-01
        27        0.00        5.16383185E-01
        28        0.00        6.45268659E-01
        29        0.00        8.11809571E-01
        30        0.00        8.11809572E-01
        31        0.00        8.23610776E-01
        32        0.00        1.39119314E+00
        33        0.00        1.39119681E+00
        34        0.00        1.39310242E+00
        35        0.00        1.39310242E+00
        36        0.00        1.40841369E+00
        37        0.00        1.56362461E+00
        38        0.00        1.56362484E+00
        39        0.00        1.56789987E+00
        40        0.00        1.56789987E+00
        41        0.00        1.59141544E+00
        42        0.00        1.67439046E+00
        43        0.00        1.69743475E+00
        44        0.00        1.69743475E+00
        45        0.00        1.80007236E+00
        46        0.00        2.51078752E+00
        47        0.00        5.82649222E+00
        48        0.00        5.93127014E+00
        49        0.00        5.93127023E+00
        50        0.00        5.93251495E+00
        51        0.00        5.93251495E+00
        52        0.00        5.98123112E+00
        53        0.00        7.72730128E+00
        54        0.00        1.76906161E+01
 
 
   Vector      Occupation     Eigenvalue [au]
 --------------------------------------------
         1        1.00       -1.15190107E+02
         2        1.00       -3.10825329E+01
         3        1.00       -1.12186176E+01
         4        1.00       -8.76997306E+00
         5        1.00       -8.76997306E+00
         6        1.00       -8.76996448E+00
         7        1.00       -1.54576711E+00
         8        1.00       -1.05169000E+00
         9        1.00       -6.49604957E-01
        10        1.00       -6.49179038E-01
        11        1.00       -6.49179038E-01
        12        1.00       -4.95334864E-01
        13        1.00       -4.95334864E-01
        14        1.00       -4.95097278E-01
        15        0.00        7.96129275E-02
        16        0.00        1.07948937E-01
        17        0.00        1.10356988E-01
        18        0.00        1.10356989E-01
        19        0.00        2.18577397E-01
        20        0.00        2.37862036E-01
        21        0.00        2.37862036E-01
        22        0.00        2.86054196E-01
        23        0.00        4.28292979E-01
        24        0.00        4.28293294E-01
        25        0.00        4.37864464E-01
        26        0.00        4.37864464E-01
        27        0.00        5.16383185E-01
        28        0.00        6.45268659E-01
        29        0.00        8.11809571E-01
        30        0.00        8.11809572E-01
        31        0.00        8.23610776E-01
        32        0.00        1.39119314E+00
        33        0.00        1.39119681E+00
        34        0.00        1.39310242E+00
        35        0.00        1.39310242E+00
        36        0.00        1.40841369E+00
        37        0.00        1.56362461E+00
        38        0.00        1.56362484E+00
        39        0.00        1.56789987E+00
        40        0.00        1.56789987E+00
        41        0.00        1.59141544E+00
        42        0.00        1.67439046E+00
        43        0.00        1.69743475E+00
        44        0.00        1.69743475E+00
        45        0.00        1.80007236E+00
        46        0.00        2.51078752E+00
        47        0.00        5.82649222E+00
        48        0.00        5.93127014E+00
        49        0.00        5.93127023E+00
        50        0.00        5.93251495E+00
        51        0.00        5.93251495E+00
        52        0.00        5.98123112E+00
        53        0.00        7.72730128E+00
        54        0.00        1.76906161E+01
 

 Grid_pts file          = ./scr/NeAr3.3_aDZ_dtime.5.gridpts.0
 Record size in doubles =  12289        No. of grid_pts per rec  =   3070
 Max. records in memory =     30        Max. recs in file   =   5317885

 
========= Restart Information ==========
 file name     ./per/NeAr3.3_aDZ_dtime.5.rt_restart
 creation time Sat Jun 30 07:49:38 2022                          
 import time   Wed Jan 11 13:29:35 2023                          
 nmats         2
 nbf_ao        54
 it            0
 t               0.000000000000E+00
========================================
 
<rt_tddft>:      0.00000        ### Loaded restart file ###
<rt_tddft>:      0.00000        ### Propagation successfully restarted ###
 Grid integrated density:      27.000002537203
 Requested integration accuracy:   0.10E-05
 Grid integrated density:      27.000002537203
 Requested integration accuracy:   0.10E-05
<rt_tddft>:      0.00000        ### Checks passed ###
<rt_tddft>:      0.00000   2.886421358180E+001     # Enuc
<rt_tddft>:      0.00000  -9.541387235740E+002     # Ecore
<rt_tddft>:      0.00000   3.129301100396E+002     # Ecoul
<rt_tddft>:      0.00000  -4.226884847102E+001     # Exc(1)
<rt_tddft>:      0.00000   0.000000000000E+000     # Exc(2)
<rt_tddft>:      0.00000  -6.546132484237E+002     # Etot
<rt_tddft>:      0.00000   1.844856150293E+000     # Eadded
<rt_tddft>:      0.00000  -5.000916304430E+000     # Charge [Ne] (alpha spin)
<rt_tddft>:      0.00000  -8.999083695552E+000     # Charge [Ar] (alpha spin)
<rt_tddft>:      0.00000  -1.399999999998E+001     # Charge [dimer] (alpha spin)
<rt_tddft>:      0.00000  -4.000385850726E+000     # Charge [Ne] (beta spin)
<rt_tddft>:      0.00000  -8.999614149257E+000     # Charge [Ar] (beta spin)
<rt_tddft>:      0.00000  -1.299999999998E+001     # Charge [dimer] (beta spin)
<rt_tddft>:      0.00000  -9.001302155156E+000     # Charge [Ne] (total spin)
<rt_tddft>:      0.00000  -1.799869784481E+001     # Charge [Ar] (total spin)
<rt_tddft>:      0.00000  -2.699999999997E+001     # Charge [dimer] (total spin)
<rt_tddft>:      0.00000   1.000000000025E+000   1.000000000013E+000   9.999999999978E-001   9.999999999746E-001   9.999999999746E-001   9.999999999967E-001   9.999999999959E-001   9.999999999989E-001   1.000000000002E+000   9.999999999968E-001   1.000000000008E+000   9.999999999973E-001   9.999999999973E-001   9.999999999966E-001  -1.890185758203E-013   2.046848805453E-013   4.500682342707E-013   4.500472446531E-013   2.762562906097E-013   2.548740224554E-013   2.649575347040E-014   2.289090738803E-013  -6.943404908501E-021   1.662160217988E-023   1.493284236485E-014   1.411758114538E-014   9.619702534877E-014  -5.203044318075E-013   1.808672875223E-012   1.808665478833E-012   3.006736452946E-013   1.221376730349E-024  -1.089420407818E-021   6.382037416621E-015   6.386015736378E-015   1.632134247811E-014  -2.307413028989E-025   1.747424184758E-026   2.706230052654E-015   2.485087260529E-015   1.918966719351E-013   3.551246509557E-013   1.070482544728E-012   1.507395856592E-013   3.412272880599E-013   5.687018642129E-014   9.725940265754E-014  -1.207937754298E-027   3.090192541074E-027   1.890646792853E-016   1.890450396591E-016   2.960317068661E-014   4.793271767445E-014   1.130916660600E-014     # MO Occupations (alpha spin)
<rt_tddft>:      0.00000   1.000000000032E+000   1.000000000012E+000   9.999999999763E-001   9.999999999746E-001   9.999999999746E-001   1.000000000010E+000   9.052803705929E-015   1.000000000004E+000   9.999999999945E-001   9.999999999967E-001   1.000000000008E+000   9.999999999973E-001   9.999999999973E-001   9.999999999966E-001   4.537822456988E-013   8.235603301263E-015   4.500888470589E-013   4.500921631427E-013   1.212364497945E-013   2.548946243161E-013   2.648696624630E-014   1.139772111459E-013  -6.943404946272E-021   1.662251103798E-023   1.493477206054E-014   1.411675706651E-014   4.355831623878E-014   5.489219453842E-013   1.808667537752E-012   1.808663676916E-012  -2.426491141985E-013   1.219225419131E-024  -1.089421213305E-021   6.379135485207E-015   6.388773835804E-015   1.410243867165E-015  -2.307268411197E-025   1.740254706492E-026   2.701505544911E-015   2.489774248287E-015   2.330938708639E-015   8.681614978408E-014   1.071088037306E-012   1.501329364420E-013   7.781224010584E-014   2.386359660483E-013   9.042871853500E-014  -1.231478383146E-027   3.084455978733E-027   1.890661714685E-016   1.890490678959E-016   2.996607844202E-014   1.028055895178E-014   7.467687697385E-015     # MO Occupations (beta spin)
<rt_tddft>:      0.00000   2.217833497410E-011   2.168295728871E-011  -2.842662483999E-003     # Dipole moment [Ne] (alpha spin)
<rt_tddft>:      0.00000   2.209438744763E-011   2.159193650849E-011  -2.065599688394E-003     # Dipole moment [Ne] (beta spin)
<rt_tddft>:      0.00000   4.427272242173E-011   4.327489379721E-011  -4.908262172393E-003     # Dipole moment [Ne] (total spin)
<rt_tddft>:      0.00000  -4.543013913310E-010  -4.539476160234E-010   5.612045280959E+001     # Dipole moment [Ar] (alpha spin)
<rt_tddft>:      0.00000  -4.542630563719E-010  -4.539092374971E-010   5.612048398163E+001     # Dipole moment [Ar] (beta spin)
<rt_tddft>:      0.00000  -9.085644477029E-010  -9.078568535206E-010  -8.786930437310E-003     # Dipole moment [Ar] (total spin)
<rt_tddft>:      0.00000  -3.763332060529E-010  -3.758544078932E-010   5.612497187757E+001     # Dipole moment [dimer] (alpha spin)
<rt_tddft>:      0.00000  -3.766889999392E-010  -3.762177924524E-010   5.612518158949E+001     # Dipole moment [dimer] (beta spin)
<rt_tddft>:      0.00000  -7.530222059921E-010  -7.520722003456E-010   4.297454062083E-004     # Dipole moment [dimer] (total spin)
<rt_tddft>:      0.00000        ### No applied E-field ###
<rt_tddft>:      0.00000        ### Saved restart file ###
 Grid integrated density:      27.000002739256
 Requested integration accuracy:   0.10E-05
 Grid integrated density:      27.000002696069
 Requested integration accuracy:   0.10E-05
 Grid integrated density:      27.000002713907
 Requested integration accuracy:   0.10E-05
 Grid integrated density:      27.000002708462
 Requested integration accuracy:   0.10E-05
 Grid integrated density:      27.000002710766
 Requested integration accuracy:   0.10E-05
 Grid integrated density:      27.000002709981
 Requested integration accuracy:   0.10E-05
 Grid integrated density:      27.000002710287
 Requested integration accuracy:   0.10E-05
 Grid integrated density:      27.000002710175
 Requested integration accuracy:   0.10E-05
 Grid integrated density:      27.000002710217
 Requested integration accuracy:   0.10E-05
 Grid integrated density:      27.000002710202
 Requested integration accuracy:   0.10E-05
 Grid integrated density:      27.000002710206
 Requested integration accuracy:   0.10E-05
<rt_tddft>:      5.00000        ### Checks passed ###
<rt_tddft>:      5.00000        ### Estimated time remaining: 3 hour(s) 56 minute(s) ###
<rt_tddft>:      5.00000   2.886421358180E+001     # Enuc
<rt_tddft>:      5.00000  -9.551666014763E+002     # Ecore
<rt_tddft>:      5.00000   3.141155435802E+002     # Ecoul
<rt_tddft>:      5.00000  -4.242641000305E+001     # Exc(1)
<rt_tddft>:      5.00000   0.000000000000E+000     # Exc(2)
<rt_tddft>:      5.00000  -6.546132543173E+002     # Etot
<rt_tddft>:      5.00000   1.844850256692E+000     # Eadded
<rt_tddft>:      5.00000  -5.012402436258E+000     # Charge [Ne] (alpha spin)
<rt_tddft>:      5.00000  -8.987597563731E+000     # Charge [Ar] (alpha spin)
<rt_tddft>:      5.00000  -1.399999999999E+001     # Charge [dimer] (alpha spin)
<rt_tddft>:      5.00000  -4.015185200949E+000     # Charge [Ne] (beta spin)
<rt_tddft>:      5.00000  -8.984814799040E+000     # Charge [Ar] (beta spin)
<rt_tddft>:      5.00000  -1.299999999999E+001     # Charge [dimer] (beta spin)
<rt_tddft>:      5.00000  -9.027587637207E+000     # Charge [Ne] (total spin)
<rt_tddft>:      5.00000  -1.797241236277E+001     # Charge [Ar] (total spin)
<rt_tddft>:      5.00000  -2.699999999998E+001     # Charge [dimer] (total spin)
<rt_tddft>:      5.00000   1.000000000021E+000   9.999982356405E-001   9.999999863124E-001   9.999999875420E-001   9.999999875420E-001   9.999999690208E-001   9.952601921404E-001   9.999229222135E-001   9.771204976855E-001   9.807542843597E-001   9.807542843710E-001   9.990149753311E-001   9.990149753311E-001   9.902295265926E-001   4.539067747582E-003   1.932980080796E-003   5.680307130764E-004   5.680307218960E-004   8.019768486500E-003   1.566894280201E-002   1.566894279601E-002   1.351196064075E-002   4.941199682694E-021   5.616334684774E-020   1.422335593099E-003   1.422335591841E-003   2.741234231187E-003   6.397626681249E-005   7.461299655488E-006   7.461299715980E-006   1.952529551811E-004   2.763943351139E-020   3.435525306201E-021   2.406272218233E-005   2.406272217682E-005   2.675366955807E-004  -6.365346282074E-025   1.191948692836E-023   4.805106260502E-006   4.805106261934E-006   7.760460829756E-004   1.841820187129E-003   2.534669045262E-003   2.534669045287E-003   3.225067453669E-003   4.025929755292E-006   8.915325578466E-007   3.297066908342E-025   7.695942057957E-025   4.454564224742E-007   4.454564224822E-007   3.570564411092E-007   3.447962469632E-004   3.888813621010E-006     # MO Occupations (alpha spin)
<rt_tddft>:      5.00000   1.000000000028E+000   9.999990124769E-001   9.999999862315E-001   9.999999875247E-001   9.999999875247E-001   9.999999689593E-001   7.805637708057E-005   9.999219569047E-001   9.919465848130E-001   9.942122617127E-001   9.942122617245E-001   9.990323258213E-001   9.990323258214E-001   9.908700567304E-001   3.720184668389E-003   6.265977586715E-004   1.466973196806E-004   1.466973207040E-004   2.207388784173E-003   5.249077062641E-003   5.249077062914E-003   7.421924044863E-003   2.039274604840E-021   4.196702911028E-020   1.051274674450E-003   1.051274673760E-003   1.692467913853E-003   2.797831025941E-005   8.419308495880E-006   8.419308558128E-006   1.718440438294E-004   2.560556570031E-020   3.921854819572E-021   2.633358040012E-005   2.633358038882E-005   5.832484796188E-005  -2.686924047231E-025   2.761377149281E-024   2.605470753034E-006   2.605470754082E-006   2.489176180971E-005   8.953875445781E-005   2.707692635106E-004   2.707692629079E-004   1.140119769200E-003   1.829061608008E-006   1.610894092179E-007   1.743842254152E-025   2.027888375964E-025   2.482328574124E-007   2.482328573956E-007   1.824392074073E-007   8.918312910732E-007   5.243365726434E-008     # MO Occupations (beta spin)
<rt_tddft>:      5.00000   5.377743561959E-011   4.919614571704E-011   3.800848984916E-003     # Dipole moment [Ne] (alpha spin)
<rt_tddft>:      5.00000   4.373688810710E-011   3.975570214586E-011  -6.439281596812E-003     # Dipole moment [Ne] (beta spin)
<rt_tddft>:      5.00000   9.751432372670E-011   8.895184786290E-011  -2.638432611896E-003     # Dipole moment [Ne] (total spin)
<rt_tddft>:      5.00000  -3.485649853678E-010  -3.469235048410E-010   5.643182590235E+001     # Dipole moment [Ar] (alpha spin)
<rt_tddft>:      5.00000  -3.317962062582E-010  -3.303818665824E-010   5.644308456462E+001     # Dipole moment [Ar] (beta spin)
<rt_tddft>:      5.00000  -6.803611916260E-010  -6.773053714234E-010   6.251867453134E-001     # Dipole moment [Ar] (total spin)
<rt_tddft>:      5.00000  -3.074766585974E-010  -3.085191281107E-010   5.631731918582E+001     # Dipole moment [dimer] (alpha spin)
<rt_tddft>:      5.00000  -3.017791226646E-010  -3.024480170309E-010   5.631985369944E+001     # Dipole moment [dimer] (beta spin)
<rt_tddft>:      5.00000  -6.092557812621E-010  -6.109671451416E-010   3.874491636076E-001     # Dipole moment [dimer] (total spin)
<rt_tddft>:      5.00000        ### No applied E-field ###
<rt_tddft>:      5.00000        ### Saved restart file ###
 Grid integrated density:      27.000002726124
 Requested integration accuracy:   0.10E-05
 Grid integrated density:      27.000002758803
 Requested integration accuracy:   0.10E-05
 Grid integrated density:      27.000002743168
 Requested integration accuracy:   0.10E-05
 Grid integrated density:      27.000002749012
 Requested integration accuracy:   0.10E-05
 Grid integrated density:      27.000002746855
 Requested integration accuracy:   0.10E-05
 Grid integrated density:      27.000002747711
 Requested integration accuracy:   0.10E-05
 Grid integrated density:      27.000002747399
 Requested integration accuracy:   0.10E-05
<rt_tddft>:     10.00000   2.886421358180E+001     # Enuc
<rt_tddft>:     10.00000  -9.560847741520E+002     # Ecore
<rt_tddft>:     10.00000   3.151926537353E+002     # Ecoul
<rt_tddft>:     10.00000  -4.258536782408E+001     # Exc(1)
<rt_tddft>:     10.00000   0.000000000000E+000     # Exc(2)
<rt_tddft>:     10.00000  -6.546132746590E+002     # Etot
<rt_tddft>:     10.00000   1.844829914960E+000     # Eadded
<rt_tddft>:     10.00000  -4.990141723066E+000     # Charge [Ne] (alpha spin)
<rt_tddft>:     10.00000  -9.009858276928E+000     # Charge [Ar] (alpha spin)
<rt_tddft>:     10.00000  -1.399999999999E+001     # Charge [dimer] (alpha spin)
<rt_tddft>:     10.00000  -3.987178397181E+000     # Charge [Ne] (beta spin)
<rt_tddft>:     10.00000  -9.012821602814E+000     # Charge [Ar] (beta spin)
<rt_tddft>:     10.00000  -1.300000000000E+001     # Charge [dimer] (beta spin)
<rt_tddft>:     10.00000  -8.977320120248E+000     # Charge [Ne] (total spin)
<rt_tddft>:     10.00000  -1.802267987974E+001     # Charge [Ar] (total spin)
<rt_tddft>:     10.00000  -2.699999999999E+001     # Charge [dimer] (total spin)
<rt_tddft>:     10.00000   1.000000000028E+000   9.999983023122E-001   9.999999737202E-001   9.999999829799E-001   9.999999829799E-001   9.999999581335E-001   9.861064698926E-001   9.998974808189E-001   9.565801763126E-001   9.629155671011E-001   9.629155671133E-001   9.990839219243E-001   9.990839219255E-001   9.947452231095E-001   4.963767660934E-003   5.805511072458E-003   2.349247992027E-003   2.349248025769E-003   1.880968920692E-002   2.983383273233E-002   2.983383270817E-002   1.750217149124E-002   2.457409970366E-021   4.461164884296E-020   1.024855452898E-003   1.024855452127E-003   1.848672341619E-003   8.083547479647E-005   1.742275807880E-005   1.742275819728E-005   2.235121767112E-004   1.835362545344E-019   3.208519303205E-020   1.759700049376E-004   1.759700048925E-004   1.193230559860E-003  -6.860151735291E-025   2.828263516487E-023   1.629565174730E-005   1.629565174911E-005   2.028162427532E-003   4.690856799612E-003   4.581040831203E-003   4.581040832507E-003   5.483814094631E-003   7.493404012322E-006   8.979559698529E-007   2.003294300740E-024   1.727746211409E-024   1.862536823065E-006   1.862536823039E-006   1.200782748781E-006   3.011970124082E-005   2.480562745727E-006     # MO Occupations (alpha spin)
<rt_tddft>:     10.00000   1.000000000035E+000   9.999991955437E-001   9.999999736918E-001   9.999999829287E-001   9.999999829288E-001   9.999999581078E-001   4.207478423551E-005   9.998970717570E-001   9.869664340977E-001   9.910854838178E-001   9.910854838291E-001   9.990896863903E-001   9.990896863915E-001   9.952622373536E-001   1.920407483133E-003   1.699351984621E-003   4.247441508992E-004   4.247441568877E-004   3.926978854606E-003   8.077976437017E-003   8.077976435165E-003   7.059713333868E-003   2.445257093142E-021   4.443233940414E-020   1.037676176108E-003   1.037676175444E-003   1.038949536683E-003   4.808063838329E-005   1.053190454731E-005   1.053190463486E-005   1.129748700499E-004   1.185546861081E-019   2.126780062899E-020   1.164358836227E-004   1.164358835685E-004   4.222676585029E-004  -1.626058217195E-025   7.793139272965E-024   8.347394963165E-006   8.347394959464E-006   5.727524801545E-005   5.782197610421E-005   1.481261516956E-004   1.481261512143E-004   1.485208757789E-003   1.639764489455E-006   5.918177735060E-007   7.639501595379E-025   6.961398162878E-025   1.008734235360E-006   1.008734235291E-006   9.334500262771E-007   8.060530728227E-007   5.324239397769E-008     # MO Occupations (beta spin)
<rt_tddft>:     10.00000   6.187561132879E-011   5.925461845975E-011   9.694235979309E-003     # Dipole moment [Ne] (alpha spin)
<rt_tddft>:     10.00000   6.511491380493E-011   5.877865705716E-011   2.328892015382E-002     # Dipole moment [Ne] (beta spin)
<rt_tddft>:     10.00000   1.269905251337E-010   1.180332755169E-010   3.298315613313E-002     # Dipole moment [Ne] (total spin)
<rt_tddft>:     10.00000  -6.158439124551E-010  -6.135715982024E-010   5.624043357935E+001     # Dipole moment [Ar] (alpha spin)
<rt_tddft>:     10.00000  -5.343700715431E-010  -5.327080906499E-010   5.625208564084E+001     # Dipole moment [Ar] (beta spin)
<rt_tddft>:     10.00000  -1.150213983998E-009  -1.146279688852E-009   2.427954985360E-001     # Dipole moment [Ar] (total spin)
<rt_tddft>:     10.00000  -5.098984365406E-010  -5.106155055962E-010   5.626798776841E+001     # Dipole moment [dimer] (alpha spin)
<rt_tddft>:     10.00000  -4.442394740246E-010  -4.469112164019E-010   5.628622767119E+001     # Dipole moment [dimer] (beta spin)
<rt_tddft>:     10.00000  -9.541379105653E-010  -9.575267219981E-010   3.044917179569E-001     # Dipole moment [dimer] (total spin)
<rt_tddft>:     10.00000        ### No applied E-field ###
 Grid integrated density:      27.000002769193
 Requested integration accuracy:   0.10E-05
 Grid integrated density:      27.000002792963
 Requested integration accuracy:   0.10E-05
 Grid integrated density:      27.000002789365
 Requested integration accuracy:   0.10E-05
 Grid integrated density:      27.000002792877
 Requested integration accuracy:   0.10E-05
 Grid integrated density:      27.000002792014
 Requested integration accuracy:   0.10E-05
 Grid integrated density:      27.000002792432
 Requested integration accuracy:   0.10E-05
 Grid integrated density:      27.000002792288
 Requested integration accuracy:   0.10E-05
<rt_tddft>:     15.00000   2.886421358180E+001     # Enuc
<rt_tddft>:     15.00000  -9.566328170419E+002     # Ecore
<rt_tddft>:     15.00000   3.158165523892E+002     # Ecoul
<rt_tddft>:     15.00000  -4.266119473489E+001     # Exc(1)
<rt_tddft>:     15.00000   0.000000000000E+000     # Exc(2)
<rt_tddft>:     15.00000  -6.546132458058E+002     # Etot
<rt_tddft>:     15.00000   1.844858768137E+000     # Eadded
<rt_tddft>:     15.00000  -4.996090636503E+000     # Charge [Ne] (alpha spin)
<rt_tddft>:     15.00000  -9.003909363498E+000     # Charge [Ar] (alpha spin)
<rt_tddft>:     15.00000  -1.400000000000E+001     # Charge [dimer] (alpha spin)
<rt_tddft>:     15.00000  -3.993797864766E+000     # Charge [Ne] (beta spin)
<rt_tddft>:     15.00000  -9.006202135236E+000     # Charge [Ar] (beta spin)
<rt_tddft>:     15.00000  -1.300000000000E+001     # Charge [dimer] (beta spin)
<rt_tddft>:     15.00000  -8.989888501269E+000     # Charge [Ne] (total spin)
<rt_tddft>:     15.00000  -1.801011149873E+001     # Charge [Ar] (total spin)
<rt_tddft>:     15.00000  -2.700000000000E+001     # Charge [dimer] (total spin)
<rt_tddft>:     15.00000   1.000000000042E+000   9.999983233490E-001   9.999999798563E-001   9.999999893211E-001   9.999999893211E-001   9.999999640932E-001   9.867190183484E-001   9.998408728991E-001   9.504617971436E-001   9.553856257216E-001   9.553856257377E-001   9.991870920142E-001   9.991870920128E-001   9.941156403342E-001   5.851712665585E-003   4.562223829446E-003   5.340113044073E-003   5.340113101241E-003   2.589276243732E-002   3.330797557822E-002   3.330797553602E-002   1.397424259690E-002   2.108985434497E-021   4.408073891878E-020   1.242677566548E-003   1.242677566309E-003   3.329749995826E-003   1.041337778339E-004   1.059929554966E-005   1.059929569418E-005   1.219836843020E-004   3.517923399970E-019   6.469354425545E-020   3.518242546266E-004   3.518242544003E-004   1.978293226470E-003  -1.389345175870E-025   3.253670170505E-023   2.638526907278E-005   2.638526906099E-005   1.904305611725E-003   4.955228494903E-003   5.146168135840E-003   5.146168138503E-003   5.939605351585E-003   8.193790067133E-006   1.210958272485E-006   2.358953935156E-024   2.282145428561E-024   1.549760307785E-006   1.549760307501E-006   1.411994091340E-006   2.369609224748E-004   2.384643393277E-006     # MO Occupations (alpha spin)
<rt_tddft>:     15.00000   1.000000000049E+000   9.999992116250E-001   9.999999797030E-001   9.999999893263E-001   9.999999893263E-001   9.999999640459E-001   2.526790663484E-005   9.998363365630E-001   9.870817185921E-001   9.915242165131E-001   9.915242165224E-001   9.992092167464E-001   9.992092167452E-001   9.947424439826E-001   1.593286239010E-003   7.671096850890E-004   1.027245740895E-003   1.027245748230E-003   5.117306742351E-003   7.536333943875E-003   7.536333936638E-003   7.342052954724E-003  -3.524590792755E-021   1.733586682120E-020   4.489311807626E-004   4.489311806350E-004   9.963153497312E-004   9.814496024827E-005   5.705707046375E-006   5.705707115370E-006   5.419849220012E-005   1.744220894414E-019   3.103777628096E-020   1.686164732451E-004   1.686164730680E-004   7.926455826539E-004   4.947215414418E-025   2.131037170065E-023   1.351458560352E-005   1.351458557821E-005   3.082144492045E-004   7.699272793980E-005   6.513942571426E-005   6.513942497238E-005   1.164570834673E-003   1.656422923356E-006   5.654481508705E-007   7.326340460879E-025   7.243107777221E-025   1.090331223124E-006   1.090331223283E-006   1.250878309820E-006   7.053420581672E-007   6.146988869604E-008     # MO Occupations (beta spin)
<rt_tddft>:     15.00000   6.213066851967E-011   6.549472560507E-011   1.407129592109E-002     # Dipole moment [Ne] (alpha spin)
<rt_tddft>:     15.00000   1.213646501883E-010   1.140320989051E-010   3.839446893988E-002     # Dipole moment [Ne] (beta spin)
<rt_tddft>:     15.00000   1.834953187079E-010   1.795268245102E-010   5.246576486097E-002     # Dipole moment [Ne] (total spin)
<rt_tddft>:     15.00000  -5.021869311230E-010  -4.966432245851E-010   5.624580933141E+001     # Dipole moment [Ar] (alpha spin)
<rt_tddft>:     15.00000  -3.512777638405E-010  -3.466986850982E-010   5.627803626793E+001     # Dipole moment [Ar] (beta spin)
<rt_tddft>:     15.00000  -8.534646949635E-010  -8.433419096833E-010   2.741218776844E-001     # Dipole moment [Ar] (total spin)
<rt_tddft>:     15.00000  -3.471235003125E-010  -3.408010874122E-010   5.622006234298E+001     # Dipole moment [dimer] (alpha spin)
<rt_tddft>:     15.00000  -1.930496969669E-010  -1.925793071152E-010   5.625919014463E+001     # Dipole moment [dimer] (beta spin)
<rt_tddft>:     15.00000  -5.401731972794E-010  -5.333803945274E-010   2.295287659611E-001     # Dipole moment [dimer] (total spin)
<rt_tddft>:     15.00000        ### No applied E-field ###
 Grid integrated density:      27.000002623413
 Requested integration accuracy:   0.10E-05
 Grid integrated density:      27.000002596810
 Requested integration accuracy:   0.10E-05
 Grid integrated density:      27.000002593538
 Requested integration accuracy:   0.10E-05
 Grid integrated density:      27.000002593474
 Requested integration accuracy:   0.10E-05
 Grid integrated density:      27.000002593615
 Requested integration accuracy:   0.10E-05
<rt_tddft>:     20.00000   2.886421358180E+001     # Enuc
<rt_tddft>:     20.00000  -9.562278214220E+002     # Ecore
<rt_tddft>:     20.00000   3.153578414219E+002     # Ecoul
<rt_tddft>:     20.00000  -4.260748304028E+001     # Exc(1)
<rt_tddft>:     20.00000   0.000000000000E+000     # Exc(2)
<rt_tddft>:     20.00000  -6.546132494586E+002     # Etot
<rt_tddft>:     20.00000   1.844855115371E+000     # Eadded
<rt_tddft>:     20.00000  -4.999920448992E+000     # Charge [Ne] (alpha spin)
<rt_tddft>:     20.00000  -9.000079551015E+000     # Charge [Ar] (alpha spin)
<rt_tddft>:     20.00000  -1.400000000001E+001     # Charge [dimer] (alpha spin)
<rt_tddft>:     20.00000  -3.996187305531E+000     # Charge [Ne] (beta spin)
<rt_tddft>:     20.00000  -9.003812694477E+000     # Charge [Ar] (beta spin)
<rt_tddft>:     20.00000  -1.300000000001E+001     # Charge [dimer] (beta spin)
<rt_tddft>:     20.00000  -8.996107754522E+000     # Charge [Ne] (total spin)
<rt_tddft>:     20.00000  -1.800389224549E+001     # Charge [Ar] (total spin)
<rt_tddft>:     20.00000  -2.700000000001E+001     # Charge [dimer] (total spin)
<rt_tddft>:     20.00000   1.000000000021E+000   9.999984638047E-001   9.999999697294E-001   9.999999675047E-001   9.999999675047E-001   9.999999573695E-001   9.962944169295E-001   9.999320062842E-001   9.494513846528E-001   9.523007000415E-001   9.523007000653E-001   9.998498735128E-001   9.998498735154E-001   9.919624682343E-001   8.438441768255E-003   2.031578113103E-003   8.878249406356E-003   8.878249475019E-003   2.791980432468E-002   3.201609516607E-002   3.201609512642E-002   1.013416678144E-002   2.192213017331E-021   4.582390146349E-020   1.131093303758E-003   1.131093303245E-003   1.472147064838E-003   1.707764812684E-004   1.032247903465E-005   1.032247916131E-005   1.247686658708E-004   4.919442578455E-019   9.906433734999E-020   5.316549150652E-004   5.316549143974E-004   1.727901120032E-003   2.693013815598E-024   4.447586406365E-023   3.700277569353E-005   3.700277566618E-005   1.371335818116E-003   3.539711774932E-003   5.244755058535E-003   5.244755062563E-003   5.354408186082E-003   7.649834269987E-006   5.351218101124E-007   2.057211148615E-024   2.618679198602E-024   2.857846524442E-007   2.857846520955E-007   4.145217756799E-007   6.608814678971E-005   1.605302654274E-006     # MO Occupations (alpha spin)
<rt_tddft>:     20.00000   1.000000000028E+000   9.999992815417E-001   9.999999696399E-001   9.999999675582E-001   9.999999675582E-001   9.999999552604E-001   4.578182090718E-005   9.999071135718E-001   9.863997760891E-001   9.918128866020E-001   9.918128866071E-001   9.998816536645E-001   9.998816536672E-001   9.927520662443E-001   3.136727962777E-003   1.010719249254E-003   1.695521325103E-003   1.695521335910E-003   5.667698994752E-003   5.735487965452E-003   5.735487951626E-003   6.889772058607E-003  -4.419309378208E-021   1.293008039585E-020   3.707337996814E-004   3.707338001194E-004   1.215243632938E-003   1.318959118713E-004   1.454629110602E-005   1.454629128235E-005   2.136622766993E-004   2.175324634863E-019   4.162672115030E-020   2.219468237022E-004   2.219468233161E-004   8.268107721702E-004   1.523912936113E-024   3.649163653149E-023   1.193113741625E-005   1.193113737548E-005   7.418237757180E-004   2.721661816616E-004   2.549936055890E-004   2.549936043461E-004   7.844811567671E-004   3.469885744530E-006   2.427228641465E-007   1.252655262080E-024   1.390986923733E-024   3.312031886992E-007   3.312031889853E-007   4.026152463548E-007   8.886562018704E-007   5.000320992823E-008     # MO Occupations (beta spin)
<rt_tddft>:     20.00000  -8.916032242654E-011  -8.044729353250E-011   4.509955798818E-003     # Dipole moment [Ne] (alpha spin)
<rt_tddft>:     20.00000   1.033243934355E-010   9.473054747718E-011   4.489614141106E-002     # Dipole moment [Ne] (beta spin)
<rt_tddft>:     20.00000   1.416407100895E-011   1.428325394468E-011   4.940609720987E-002     # Dipole moment [Ne] (total spin)
<rt_tddft>:     20.00000  -1.216757648778E-009  -1.211941232046E-009   5.622980188670E+001     # Dipole moment [Ar] (alpha spin)
<rt_tddft>:     20.00000  -9.095312308880E-010  -9.068730468474E-010   5.626738233916E+001     # Dipole moment [Ar] (beta spin)
<rt_tddft>:     20.00000  -2.126288879666E-009  -2.118814278893E-009   2.474605042103E-001     # Dipole moment [Ar] (total spin)
<rt_tddft>:     20.00000  -1.108063841864E-009  -1.102850274192E-009   5.617830049134E+001     # Dipole moment [dimer] (alpha spin)
<rt_tddft>:     20.00000  -7.647542780630E-010  -7.689114772719E-010   5.621602601562E+001     # Dipole moment [dimer] (beta spin)
<rt_tddft>:     20.00000  -1.872818119927E-009  -1.871761751463E-009   1.446027853082E-001     # Dipole moment [dimer] (total spin)
<rt_tddft>:     20.00000        ### No applied E-field ###
 Grid integrated density:      27.000002747156
 Requested integration accuracy:   0.10E-05
 Grid integrated density:      27.000002703132
 Requested integration accuracy:   0.10E-05
 Grid integrated density:      27.000002719835
 Requested integration accuracy:   0.10E-05
 Grid integrated density:      27.000002713969
 Requested integration accuracy:   0.10E-05
 Grid integrated density:      27.000002716113
 Requested integration accuracy:   0.10E-05
<rt_tddft>:     25.00000   2.886421358180E+001     # Enuc
<rt_tddft>:     25.00000  -9.565442413325E+002     # Ecore
<rt_tddft>:     25.00000   3.157048173313E+002     # Ecoul
<rt_tddft>:     25.00000  -4.263803498155E+001     # Exc(1)
<rt_tddft>:     25.00000   0.000000000000E+000     # Exc(2)
<rt_tddft>:     25.00000  -6.546132454009E+002     # Etot
<rt_tddft>:     25.00000   1.844859173048E+000     # Eadded
<rt_tddft>:     25.00000  -4.993626670493E+000     # Charge [Ne] (alpha spin)
<rt_tddft>:     25.00000  -9.006373329520E+000     # Charge [Ar] (alpha spin)
<rt_tddft>:     25.00000  -1.400000000001E+001     # Charge [dimer] (alpha spin)
<rt_tddft>:     25.00000  -3.984485148132E+000     # Charge [Ne] (beta spin)
<rt_tddft>:     25.00000  -9.015514851883E+000     # Charge [Ar] (beta spin)
<rt_tddft>:     25.00000  -1.300000000001E+001     # Charge [dimer] (beta spin)
<rt_tddft>:     25.00000  -8.978111818625E+000     # Charge [Ne] (total spin)
<rt_tddft>:     25.00000  -1.802188818140E+001     # Charge [Ar] (total spin)
<rt_tddft>:     25.00000  -2.700000000003E+001     # Charge [dimer] (total spin)
<rt_tddft>:     25.00000   1.000000000021E+000   9.999985338983E-001   9.999999920086E-001   9.999999597243E-001   9.999999597243E-001   9.999999328102E-001   9.941351350263E-001   9.999245982238E-001   9.512928134076E-001   9.525399630171E-001   9.525399630536E-001   9.989830919433E-001   9.989830919401E-001   9.944826451822E-001   1.023927380243E-002   2.236871011070E-003   1.208006266257E-002   1.208006269986E-002   2.781753453251E-002   2.941298618238E-002   2.941298618401E-002   6.839200011693E-003  -3.142720238525E-022   3.881502617600E-020   8.870795972806E-004   8.870795961789E-004   7.959772983568E-004   2.247204833846E-004   4.186752728967E-005   4.186752738091E-005   1.422024277848E-004   5.419919614913E-019   1.160247201442E-019   6.120652702573E-004   6.120652689308E-004   1.050700402737E-003   1.151976581383E-023   6.965214168992E-023   4.450384269783E-005   4.450384264704E-005   1.992806439035E-003   3.585314340930E-003   5.398348962681E-003   5.398348968290E-003   5.093376254797E-003   4.270599336645E-006   2.580734392504E-007   8.735161786793E-024   8.829690743545E-024   7.120983276137E-008   7.120983313383E-008   2.673690025736E-007   1.416869976580E-004   1.889436255520E-006     # MO Occupations (alpha spin)
<rt_tddft>:     25.00000   1.000000000028E+000   9.999992965855E-001   9.999999922725E-001   9.999999599297E-001   9.999999599297E-001   9.999999262579E-001   1.550092017829E-005   9.999012009055E-001   9.873064678418E-001   9.918258758107E-001   9.918258758098E-001   9.989778842604E-001   9.989778842573E-001   9.952226432569E-001   2.707942668144E-003   1.232295283964E-003   2.533808738440E-003   2.533808743408E-003   5.601302010147E-003   4.476597650275E-003   4.476597624694E-003   3.940150274429E-003   1.597940517479E-021   4.740282870257E-020   1.201182161446E-003   1.201182161312E-003   9.726471616919E-004   2.009198745746E-004   2.322672782131E-005   2.322672794082E-005   2.686283566297E-005   2.218205082081E-019   4.652389599607E-020   2.422137144229E-004   2.422137137671E-004   4.758668749697E-004   4.510913395566E-024   4.988539154237E-023   6.064319393219E-006   6.064319370616E-006   1.166310447785E-003   7.231148658728E-004   7.131687085297E-004   7.131687062980E-004   5.048208770326E-004   1.039417535592E-006   2.602702581040E-007   2.463784553800E-024   2.776746283871E-024   1.797029402244E-008   1.797029393613E-008   5.014315958262E-007   8.733970574515E-007   6.430037040846E-008     # MO Occupations (beta spin)
<rt_tddft>:     25.00000  -2.704505698002E-010  -2.621932889508E-010  -9.709801585585E-003     # Dipole moment [Ne] (alpha spin)
<rt_tddft>:     25.00000   1.562922889514E-010   1.507301044906E-010   5.065531706305E-002     # Dipole moment [Ne] (beta spin)
<rt_tddft>:     25.00000  -1.141582808488E-010  -1.114631844602E-010   4.094551547747E-002     # Dipole moment [Ne] (total spin)
<rt_tddft>:     25.00000  -6.774278271295E-010  -6.681824775641E-010   5.619532023623E+001     # Dipole moment [Ar] (alpha spin)
<rt_tddft>:     25.00000  -3.397855383201E-010  -3.326918881960E-010   5.622257839554E+001     # Dipole moment [Ar] (beta spin)
<rt_tddft>:     25.00000  -1.017213365450E-009  -1.000874365760E-009   1.681749101231E-001     # Dipole moment [Ar] (total spin)
<rt_tddft>:     25.00000  -6.443814866325E-010  -6.311148097089E-010   5.617127131847E+001     # Dipole moment [dimer] (alpha spin)
<rt_tddft>:     25.00000  -1.271646166548E-010  -1.227902269420E-010   5.621355085424E+001     # Dipole moment [dimer] (beta spin)
<rt_tddft>:     25.00000  -7.715461032874E-010  -7.539050366509E-010   1.350984510665E-001     # Dipole moment [dimer] (total spin)
<rt_tddft>:     25.00000        ### No applied E-field ###
 Grid integrated density:      27.000002744808
 Requested integration accuracy:   0.10E-05
 Grid integrated density:      27.000002769015
 Requested integration accuracy:   0.10E-05
 Grid integrated density:      27.000002768602
 Requested integration accuracy:   0.10E-05
 Grid integrated density:      27.000002770246
 Requested integration accuracy:   0.10E-05
<rt_tddft>:     30.00000   2.886421358180E+001     # Enuc
<rt_tddft>:     30.00000  -9.567101119329E+002     # Ecore
<rt_tddft>:     30.00000   3.159041171807E+002     # Ecoul
<rt_tddft>:     30.00000  -4.267148314768E+001     # Exc(1)
<rt_tddft>:     30.00000   0.000000000000E+000     # Exc(2)
<rt_tddft>:     30.00000  -6.546132643180E+002     # Etot
<rt_tddft>:     30.00000   1.844840255965E+000     # Eadded
<rt_tddft>:     30.00000  -5.000265099934E+000     # Charge [Ne] (alpha spin)
<rt_tddft>:     30.00000  -8.999734900085E+000     # Charge [Ar] (alpha spin)
<rt_tddft>:     30.00000  -1.400000000002E+001     # Charge [dimer] (alpha spin)
<rt_tddft>:     30.00000  -3.991221029576E+000     # Charge [Ne] (beta spin)
<rt_tddft>:     30.00000  -9.008778970445E+000     # Charge [Ar] (beta spin)
<rt_tddft>:     30.00000  -1.300000000002E+001     # Charge [dimer] (beta spin)
<rt_tddft>:     30.00000  -8.991486129510E+000     # Charge [Ne] (total spin)
<rt_tddft>:     30.00000  -1.800851387053E+001     # Charge [Ar] (total spin)
<rt_tddft>:     30.00000  -2.700000000004E+001     # Charge [dimer] (total spin)
<rt_tddft>:     30.00000   1.000000000052E+000   9.999986719094E-001   9.999999927386E-001   9.999999687154E-001   9.999999687154E-001   9.999999261334E-001   9.861844352577E-001   9.999168511508E-001   9.536078259734E-001   9.538733719429E-001   9.538733719896E-001   9.986464307791E-001   9.986464307833E-001   9.940137983823E-001   1.157608172370E-002   4.011958717610E-003   1.343556377531E-002   1.343556375191E-002   2.551775052241E-002   2.603004605275E-002   2.603004613415E-002   9.809442666512E-003   3.588671613276E-021   6.111072318675E-020   1.728359934762E-003   1.728359933264E-003   1.977294815887E-003   2.577765724921E-004   1.863436099349E-005   1.863436118667E-005   1.184572891051E-004   5.007968894090E-019   1.088048081490E-019   5.608029327789E-004   5.608029310894E-004   6.626022220927E-004   4.362546441286E-023   1.127298774838E-022   4.894841184575E-005   4.894841174190E-005   2.764833105212E-003   4.404469101363E-003   5.657635452018E-003   5.657635458466E-003   5.035997488940E-003   5.391563223886E-006   7.396569988300E-007   1.105992065442E-023   1.118568511752E-023   2.375634873184E-007   2.375634878926E-007   3.573055207498E-007   1.335003178772E-004   1.845397918806E-006     # MO Occupations (alpha spin)
<rt_tddft>:     30.00000   1.000000000059E+000   9.999992746482E-001   9.999999928676E-001   9.999999692172E-001   9.999999692173E-001   9.999999199347E-001   9.389700239063E-006   9.999088647573E-001   9.884853093907E-001   9.923342076378E-001   9.923342076291E-001   9.987010600918E-001   9.987010600959E-001   9.953250888151E-001   2.346293723216E-003   1.395565741380E-003   3.055542158918E-003   3.055542156548E-003   4.565194528248E-003   3.042886523793E-003   3.042886498005E-003   4.229997844741E-003   7.329529546193E-022   4.634472424065E-020   1.225120390753E-003   1.225120391674E-003   3.000167391624E-004   2.055419261290E-004   1.388895838259E-005   1.388895850334E-005   9.430994386907E-005   2.114842620783E-019   4.589627898395E-020   2.305049707375E-004   2.305049699819E-004   2.564899683338E-004   5.881810222324E-024   4.839533650697E-023   1.104940209935E-006   1.104940194987E-006   1.131069921478E-003   1.195595266669E-003   1.395701792767E-003   1.395701789033E-003   5.491054306515E-004   1.759783305567E-006   2.943557490924E-007   1.202118220950E-023   1.245058195131E-023   1.331340778842E-008   1.331340767316E-008   2.758292171399E-007   5.742793875637E-007   7.461178379287E-008     # MO Occupations (beta spin)
<rt_tddft>:     30.00000  -4.925885616476E-010  -4.928633813702E-010  -9.728873214000E-003     # Dipole moment [Ne] (alpha spin)
<rt_tddft>:     30.00000   2.374556061708E-010   2.338817357748E-010   2.351120497245E-002     # Dipole moment [Ne] (beta spin)
<rt_tddft>:     30.00000  -2.551329554768E-010  -2.589816455953E-010   1.378233175845E-002     # Dipole moment [Ne] (total spin)
<rt_tddft>:     30.00000  -1.538818532466E-009  -1.531880055759E-009   5.630954853514E+001     # Dipole moment [Ar] (alpha spin)
<rt_tddft>:     30.00000  -1.056351502519E-009  -1.052819777488E-009   5.633013477677E+001     # Dipole moment [Ar] (beta spin)
<rt_tddft>:     30.00000  -2.595170034984E-009  -2.584699833247E-009   3.899595902584E-001     # Dipole moment [Ar] (total spin)
<rt_tddft>:     30.00000  -1.589703984039E-009  -1.584368379614E-009   5.622586579965E+001     # Dipole moment [dimer] (alpha spin)
<rt_tddft>:     30.00000  -7.453743874546E-010  -7.469476840448E-010   5.625993449996E+001     # Dipole moment [dimer] (beta spin)
<rt_tddft>:     30.00000  -2.335078371494E-009  -2.331316063659E-009   2.360765779486E-001     # Dipole moment [dimer] (total spin)
<rt_tddft>:     30.00000        ### No applied E-field ###
<rt_tddft>:     30.00000        ### Saved restart file ###
 Grid integrated density:      27.000002691930
 Requested integration accuracy:   0.10E-05
 Grid integrated density:      27.000002727089
 Requested integration accuracy:   0.10E-05
 Grid integrated density:      27.000002714749
 Requested integration accuracy:   0.10E-05
 Grid integrated density:      27.000002721898
 Requested integration accuracy:   0.10E-05
 Grid integrated density:      27.000002719852
 Requested integration accuracy:   0.10E-05
<rt_tddft>:     35.00000   2.886421358180E+001     # Enuc
<rt_tddft>:     35.00000  -9.565249448567E+002     # Ecore
<rt_tddft>:     35.00000   3.156870211754E+002     # Ecoul
<rt_tddft>:     35.00000  -4.263953445172E+001     # Exc(1)
<rt_tddft>:     35.00000   0.000000000000E+000     # Exc(2)
<rt_tddft>:     35.00000  -6.546132445512E+002     # Etot
<rt_tddft>:     35.00000   1.844860022740E+000     # Eadded
<rt_tddft>:     35.00000  -4.981137284644E+000     # Charge [Ne] (alpha spin)
<rt_tddft>:     35.00000  -9.018862715381E+000     # Charge [Ar] (alpha spin)
<rt_tddft>:     35.00000  -1.400000000003E+001     # Charge [dimer] (alpha spin)
<rt_tddft>:     35.00000  -3.981583184445E+000     # Charge [Ne] (beta spin)
<rt_tddft>:     35.00000  -9.018416815583E+000     # Charge [Ar] (beta spin)
<rt_tddft>:     35.00000  -1.300000000003E+001     # Charge [dimer] (beta spin)
<rt_tddft>:     35.00000  -8.962720469089E+000     # Charge [Ne] (total spin)
<rt_tddft>:     35.00000  -1.803727953096E+001     # Charge [Ar] (total spin)
<rt_tddft>:     35.00000  -2.700000000005E+001     # Charge [dimer] (total spin)
<rt_tddft>:     35.00000   1.000000000048E+000   9.999987461605E-001   9.999999920780E-001   9.999999618638E-001   9.999999618639E-001   9.999999304862E-001   9.907115216138E-001   9.998438988655E-001   9.565187352636E-001   9.559253517855E-001   9.559253518299E-001   9.991674966452E-001   9.991674966393E-001   9.943838453533E-001   1.203398030916E-002   4.600498110656E-003   1.299380813048E-002   1.299380802030E-002   1.866801292793E-002   2.396071131621E-002   2.396071146115E-002   1.166994072532E-002   4.024893057363E-021   6.036870111606E-020   1.489408425012E-003   1.489408419348E-003   7.459124337415E-004   2.395093687868E-004   2.229017638709E-005   2.229017644439E-005   9.399799380792E-005   3.453553891983E-019   7.407353737111E-020   3.720427243352E-004   3.720427225869E-004   4.475350369004E-004   1.331163240655E-022   2.128087632277E-022   5.369654568984E-005   5.369654555548E-005   2.412766492755E-003   3.323051376150E-003   6.014994544746E-003   6.014994549739E-003   4.195125378559E-003   4.449813029363E-006   4.618084959340E-007   1.404974872469E-023   1.499036843904E-023   2.377845243646E-007   2.377845246803E-007   5.374229269243E-007   1.066386096227E-004   9.123943760262E-007     # MO Occupations (alpha spin)
<rt_tddft>:     35.00000   1.000000000054E+000   9.999992570816E-001   9.999999919327E-001   9.999999622783E-001   9.999999622783E-001   9.999999260818E-001   1.224616933849E-005   9.998501082344E-001   9.894226233799E-001   9.927136678843E-001   9.927136678659E-001   9.991438906511E-001   9.991438906449E-001   9.941335902296E-001   4.016984420172E-003   3.115757056680E-003   3.552126354900E-003   3.552126332334E-003   2.826137680475E-003   1.636269667470E-003   1.636269630457E-003   2.042846052711E-003  -3.828321859916E-021   2.059608150523E-020   6.080836910120E-004   6.080836905095E-004   6.900273825162E-004   2.486787357466E-004   2.288834528131E-005   2.288834555752E-005   9.932980105180E-005   1.538087910469E-019   3.240320847712E-020   1.587461740249E-004   1.587461732189E-004   1.831456816324E-004   7.582466144923E-024   3.134195914544E-023   2.801549028294E-006   2.801549007751E-006   7.842499999302E-004   1.498317994089E-003   2.161536561968E-003   2.161536556051E-003   1.073624300748E-003   1.494851684980E-006   4.394858773338E-008   9.222539962327E-023   9.149985925758E-023   2.686591848307E-008   2.686591865114E-008   1.369674493577E-007   1.421505967292E-006   6.052949525667E-008     # MO Occupations (beta spin)
<rt_tddft>:     35.00000  -6.565752050306E-010  -6.614084035832E-010   2.168431222844E-002     # Dipole moment [Ne] (alpha spin)
<rt_tddft>:     35.00000   4.008995044618E-010   4.003380231542E-010   3.685601271652E-003     # Dipole moment [Ne] (beta spin)
<rt_tddft>:     35.00000  -2.556757005689E-010  -2.610703804290E-010   2.536991350009E-002     # Dipole moment [Ne] (total spin)
<rt_tddft>:     35.00000  -7.093630788996E-010  -6.992640403597E-010   5.615186831601E+001     # Dipole moment [Ar] (alpha spin)
<rt_tddft>:     35.00000  -2.582936678612E-010  -2.507099549551E-010   5.618538228206E+001     # Dipole moment [Ar] (beta spin)
<rt_tddft>:     35.00000  -9.676567467609E-010  -9.499739953148E-010   8.752687641922E-002     # Dipole moment [Ar] (total spin)
<rt_tddft>:     35.00000  -1.159318910853E-009  -1.147867520964E-009   5.617299986268E+001     # Dipole moment [dimer] (alpha spin)
<rt_tddft>:     35.00000   9.956679660671E-012   1.654512640068E-011   5.618463573380E+001     # Dipole moment [dimer] (beta spin)
<rt_tddft>:     35.00000  -1.149362231193E-009  -1.131322394563E-009   1.079118748249E-001     # Dipole moment [dimer] (total spin)
<rt_tddft>:     35.00000        ### No applied E-field ###
 Grid integrated density:      27.000002686154
 Requested integration accuracy:   0.10E-05
 Grid integrated density:      27.000002642248
 Requested integration accuracy:   0.10E-05
 Grid integrated density:      27.000002644661
 Requested integration accuracy:   0.10E-05
 Grid integrated density:      27.000002641372
 Requested integration accuracy:   0.10E-05
 Grid integrated density:      27.000002642214
 Requested integration accuracy:   0.10E-05
<rt_tddft>:     40.00000   2.886421358180E+001     # Enuc
<rt_tddft>:     40.00000  -9.562803097240E+002     # Ecore
<rt_tddft>:     40.00000   3.154006941301E+002     # Ecoul
<rt_tddft>:     40.00000  -4.259786814692E+001     # Exc(1)
<rt_tddft>:     40.00000   0.000000000000E+000     # Exc(2)
<rt_tddft>:     40.00000  -6.546132701590E+002     # Etot
<rt_tddft>:     40.00000   1.844834414955E+000     # Eadded
<rt_tddft>:     40.00000  -4.991039863610E+000     # Charge [Ne] (alpha spin)
<rt_tddft>:     40.00000  -9.008960136423E+000     # Charge [Ar] (alpha spin)
<rt_tddft>:     40.00000  -1.400000000003E+001     # Charge [dimer] (alpha spin)
<rt_tddft>:     40.00000  -4.001822801951E+000     # Charge [Ne] (beta spin)
<rt_tddft>:     40.00000  -8.998177198083E+000     # Charge [Ar] (beta spin)
<rt_tddft>:     40.00000  -1.300000000003E+001     # Charge [dimer] (beta spin)
<rt_tddft>:     40.00000  -8.992862665560E+000     # Charge [Ne] (total spin)
<rt_tddft>:     40.00000  -1.800713733451E+001     # Charge [Ar] (total spin)
<rt_tddft>:     40.00000  -2.700000000007E+001     # Charge [dimer] (total spin)
<rt_tddft>:     40.00000   1.000000000008E+000   9.999989080006E-001   9.999999664466E-001   9.999999495659E-001   9.999999495659E-001   9.999999789695E-001   9.967101714762E-001   9.998347383132E-001   9.629531231909E-001   9.596564657726E-001   9.596564657869E-001   9.997116134595E-001   9.997116134666E-001   9.896025853277E-001   1.131147306981E-002   2.269332398735E-003   1.009130804868E-002   1.009130786650E-002   1.302139610671E-002   2.341432198689E-002   2.341432216021E-002   1.497146293133E-002  -4.673825245765E-021   1.301894823317E-020   1.452093723200E-004   1.452093694440E-004   1.707308580282E-003   2.494901670130E-004   5.366560455377E-005   5.366560468986E-005   3.233121901686E-004   1.781811851746E-019   3.746360169150E-020   1.814955321256E-004   1.814955309760E-004   4.577979444125E-004   3.398883111598E-022   4.480693577647E-022   4.866680434612E-005   4.866680420453E-005   1.918456574267E-003   1.538931199718E-003   6.697284749022E-003   6.697284749193E-003   2.951611614690E-003   3.281822225501E-006   6.770765213817E-007   1.527929399251E-023   1.774702249761E-023   1.907698608397E-008   1.907698615934E-008   2.098793245882E-007   1.740316652238E-004   1.755124477052E-006     # MO Occupations (alpha spin)
<rt_tddft>:     40.00000   1.000000000015E+000   9.999991956061E-001   9.999999657799E-001   9.999999502061E-001   9.999999502062E-001   9.999999746579E-001   5.804283797069E-005   9.998575223332E-001   9.893056639703E-001   9.924755664033E-001   9.924755663739E-001   9.997451631198E-001   9.997451631270E-001   9.920194841900E-001   4.810173288681E-003   1.944061318901E-003   3.515498868352E-003   3.515498832836E-003   2.024217996535E-003   9.165389430702E-004   9.165389129819E-004   4.419091946603E-003  -4.368438751845E-021   1.412757590031E-020   2.692474612880E-004   2.692474629612E-004   1.076758141191E-003   2.295391252889E-004   3.090989688541E-005   3.090989702090E-005   9.572645850239E-005   9.628526777429E-020   1.943052745559E-020   9.046695182227E-005   9.046695124865E-005   1.681799582218E-004   3.005553825601E-023   3.630220476132E-023   8.058429191477E-006   8.058429140496E-006   5.276673068965E-004   1.634326890231E-003   2.948484213218E-003   2.948484204296E-003   1.826386343468E-003   1.370549308514E-006   1.568042821712E-007   2.128768105585E-022   2.126520565548E-022   1.155323870610E-007   1.155323865350E-007   1.606678283039E-007   2.255414700181E-006   7.847703222906E-008     # MO Occupations (beta spin)
<rt_tddft>:     40.00000  -4.514946423558E-010  -4.612001345487E-010   4.414802822113E-002     # Dipole moment [Ne] (alpha spin)
<rt_tddft>:     40.00000   4.910753640309E-010   4.929380427982E-010  -3.490462386990E-002     # Dipole moment [Ne] (beta spin)
<rt_tddft>:     40.00000   3.958072167504E-011   3.173790824958E-011   9.243404351231E-003     # Dipole moment [Ne] (total spin)
<rt_tddft>:     40.00000  -1.867417577956E-009  -1.859461576980E-009   5.629662951231E+001     # Dipole moment [Ar] (alpha spin)
<rt_tddft>:     40.00000  -1.316663707056E-009  -1.313149782872E-009   5.630455757139E+001     # Dipole moment [Ar] (beta spin)
<rt_tddft>:     40.00000  -3.184081285012E-009  -3.172611359852E-009   3.514633620434E-001     # Dipole moment [Ar] (total spin)
<rt_tddft>:     40.00000  -2.193198846246E-009  -2.188519584825E-009   5.621079281949E+001     # Dipole moment [dimer] (alpha spin)
<rt_tddft>:     40.00000  -8.816555785750E-010  -8.812310303665E-010   5.616109560034E+001     # Dipole moment [dimer] (beta spin)
<rt_tddft>:     40.00000  -3.074854424821E-009  -3.069750615191E-009   1.221646981714E-001     # Dipole moment [dimer] (total spin)
<rt_tddft>:     40.00000        ### No applied E-field ###
 Grid integrated density:      27.000002702042
 Requested integration accuracy:   0.10E-05
 Grid integrated density:      27.000002680061
 Requested integration accuracy:   0.10E-05
 Grid integrated density:      27.000002691565
 Requested integration accuracy:   0.10E-05
 Grid integrated density:      27.000002688834
 Requested integration accuracy:   0.10E-05
 Grid integrated density:      27.000002690151
 Requested integration accuracy:   0.10E-05
 Grid integrated density:      27.000002689725
 Requested integration accuracy:   0.10E-05
<rt_tddft>:     45.00000   2.886421358180E+001     # Enuc
<rt_tddft>:     45.00000  -9.565684831325E+002     # Ecore
<rt_tddft>:     45.00000   3.157208881905E+002     # Ecoul
<rt_tddft>:     45.00000  -4.262987888483E+001     # Exc(1)
<rt_tddft>:     45.00000   0.000000000000E+000     # Exc(2)
<rt_tddft>:     45.00000  -6.546132602450E+002     # Etot
<rt_tddft>:     45.00000   1.844844328927E+000     # Eadded
<rt_tddft>:     45.00000  -4.975896886293E+000     # Charge [Ne] (alpha spin)
<rt_tddft>:     45.00000  -9.024103113745E+000     # Charge [Ar] (alpha spin)
<rt_tddft>:     45.00000  -1.400000000004E+001     # Charge [dimer] (alpha spin)
<rt_tddft>:     45.00000  -3.987940540544E+000     # Charge [Ne] (beta spin)
<rt_tddft>:     45.00000  -9.012059459495E+000     # Charge [Ar] (beta spin)
<rt_tddft>:     45.00000  -1.300000000004E+001     # Charge [dimer] (beta spin)
<rt_tddft>:     45.00000  -8.963837426838E+000     # Charge [Ne] (total spin)
<rt_tddft>:     45.00000  -1.803616257324E+001     # Charge [Ar] (total spin)
<rt_tddft>:     45.00000  -2.700000000008E+001     # Charge [dimer] (total spin)
<rt_tddft>:     45.00000   1.000000000051E+000   9.999989155557E-001   9.999999854070E-001   9.999999718189E-001   9.999999718189E-001   9.999999514947E-001   9.900710154277E-001   9.998585627225E-001   9.701261699391E-001   9.648395580233E-001   9.648395579806E-001   9.990238645279E-001   9.990238645220E-001   9.988452537544E-001   7.113349092377E-003   3.948095464546E-003   6.276571340586E-003   6.276571128661E-003   1.167330806234E-002   2.091171512371E-002   2.091171520973E-002   8.522140182454E-003   1.456702178200E-021   5.403379151300E-020   1.428796105351E-003   1.428796104640E-003   2.176761851013E-003   2.146991936218E-004   2.593384718743E-005   2.593384736424E-005   1.270892918728E-004   1.019329877397E-019   1.583897345525E-020   8.517194988628E-005   8.517194989310E-005   1.306754674157E-003   6.314830303074E-022   7.884156513689E-022   3.788000558199E-005   3.788000554834E-005   2.132557401512E-003   1.877031986895E-003   7.370201434167E-003   7.370201427218E-003   1.956109731658E-003   4.674385994380E-006   9.468252814732E-007   6.280461121851E-023   6.573992353101E-023   3.358916383010E-007   3.358916381392E-007   1.911415608265E-006   4.308923288195E-005   1.626939418353E-006     # MO Occupations (alpha spin)
<rt_tddft>:     45.00000   1.000000000058E+000   9.999992308375E-001   9.999999847849E-001   9.999999728660E-001   9.999999728661E-001   9.999999392522E-001   6.602430442305E-006   9.998768651109E-001   9.898953566448E-001   9.923452517121E-001   9.923452516749E-001   9.990601328127E-001   9.990601328066E-001   9.984174090180E-001   2.518962800396E-003   1.904062196720E-003   3.330704369048E-003   3.330704312047E-003   1.053724112323E-003   4.324898192989E-004   4.324897840970E-004   7.784075949278E-004   4.438152790602E-022   4.842136801170E-020   1.087714174853E-003   1.087714177256E-003   4.876164707090E-004   1.794392764802E-004   2.950476529198E-005   2.950476534552E-005   7.891953707901E-005   5.019924071906E-020   8.921435447078E-021   4.295370300234E-005   4.295370289275E-005   3.160602588637E-004   1.022739040497E-022   9.807353512978E-023   1.282354825176E-005   1.282354823030E-005   3.235862910048E-004   1.783477769565E-003   3.657971544330E-003   3.657971532172E-003   2.376385871915E-003   2.802311485702E-006   1.250902071073E-007   1.600147240842E-022   1.608552709941E-022   4.807349206876E-007   4.807349194353E-007   7.992732287082E-008   9.005437756512E-007   6.189531069276E-008     # MO Occupations (beta spin)
<rt_tddft>:     45.00000   8.757125005211E-011   8.198654518752E-011   3.971178373393E-002     # Dipole moment [Ne] (alpha spin)
<rt_tddft>:     45.00000   5.512570229822E-010   5.567722577555E-010  -4.000700324254E-002     # Dipole moment [Ne] (beta spin)
<rt_tddft>:     45.00000   6.388282730343E-010   6.387588029430E-010  -2.952195086104E-004     # Dipole moment [Ne] (total spin)
<rt_tddft>:     45.00000  -8.453384769691E-010  -8.388003111576E-010   5.610784954175E+001     # Dipole moment [Ar] (alpha spin)
<rt_tddft>:     45.00000  -3.620880365608E-010  -3.581826663694E-010   5.613606430132E+001     # Dipole moment [Ar] (beta spin)
<rt_tddft>:     45.00000  -1.207426513530E-009  -1.196982977527E-009  -5.809878582028E-003     # Dipole moment [Ar] (total spin)
<rt_tddft>:     45.00000  -1.354039227393E-009  -1.353435500394E-009   5.614516310754E+001     # Dipole moment [dimer] (alpha spin)
<rt_tddft>:     45.00000  -2.411448300719E-010  -2.394751129198E-010   5.612014718536E+001     # Dipole moment [dimer] (beta spin)
<rt_tddft>:     45.00000  -1.595184057465E-009  -1.592910613314E-009   1.558657124778E-002     # Dipole moment [dimer] (total spin)
<rt_tddft>:     45.00000        ### No applied E-field ###
 Grid integrated density:      27.000002660698
 Requested integration accuracy:   0.10E-05
 Grid integrated density:      27.000002680327
 Requested integration accuracy:   0.10E-05
 Grid integrated density:      27.000002681213
 Requested integration accuracy:   0.10E-05
 Grid integrated density:      27.000002682103
 Requested integration accuracy:   0.10E-05
 Grid integrated density:      27.000002682252
 Requested integration accuracy:   0.10E-05
<rt_tddft>:     50.00000   2.886421358180E+001     # Enuc
<rt_tddft>:     50.00000  -9.563291896320E+002     # Ecore
<rt_tddft>:     50.00000   3.154694319749E+002     # Ecoul
<rt_tddft>:     50.00000  -4.261771402269E+001     # Exc(1)
<rt_tddft>:     50.00000   0.000000000000E+000     # Exc(2)
<rt_tddft>:     50.00000  -6.546132580980E+002     # Etot
<rt_tddft>:     50.00000   1.844846475980E+000     # Eadded
<rt_tddft>:     50.00000  -5.003443221276E+000     # Charge [Ne] (alpha spin)
<rt_tddft>:     50.00000  -8.996556778769E+000     # Charge [Ar] (alpha spin)
<rt_tddft>:     50.00000  -1.400000000005E+001     # Charge [dimer] (alpha spin)
<rt_tddft>:     50.00000  -4.008089293046E+000     # Charge [Ne] (beta spin)
<rt_tddft>:     50.00000  -8.991910707000E+000     # Charge [Ar] (beta spin)
<rt_tddft>:     50.00000  -1.300000000005E+001     # Charge [dimer] (beta spin)
<rt_tddft>:     50.00000  -9.011532514322E+000     # Charge [Ne] (total spin)
<rt_tddft>:     50.00000  -1.798846748577E+001     # Charge [Ar] (total spin)
<rt_tddft>:     50.00000  -2.700000000009E+001     # Charge [dimer] (total spin)
<rt_tddft>:     50.00000   1.000000000071E+000   9.999988881204E-001   9.999999834844E-001   9.999999693774E-001   9.999999693775E-001   9.999999525111E-001   9.843608987057E-001   9.999232744564E-001   9.785422122076E-001   9.721353620394E-001   9.721353619399E-001   9.985560644816E-001   9.985560644900E-001   9.912856457450E-001   1.043447329090E-002   5.978752810336E-003   2.990126410034E-003   2.990126239500E-003   1.090769465333E-002   1.674657591333E-002   1.674657586789E-002   8.493552772227E-003   5.524333494774E-021   7.722401526372E-020   1.863598966840E-003   1.863598967043E-003   1.045753490013E-003   1.786628422798E-004   2.708292322869E-005   2.708292314525E-005   8.008502689115E-005   1.735518574158E-019   2.574593677194E-020   1.576941965614E-004   1.576941976844E-004   2.235521502228E-003   1.000040037259E-021   1.196667280665E-021   4.274035623244E-005   4.274035633811E-005   2.128222361551E-003   2.994966540048E-003   7.480354498294E-003   7.480354486652E-003   1.175040723928E-003   4.400910254916E-006   1.607078368515E-006   2.132409677256E-022   2.196804079002E-022   4.309729608081E-007   4.309729618641E-007   2.173475199027E-006   2.270152832091E-004   1.222028215097E-006     # MO Occupations (alpha spin)
<rt_tddft>:     50.00000   1.000000000078E+000   9.999992315850E-001   9.999999833051E-001   9.999999698451E-001   9.999999698451E-001   9.999999391078E-001   2.655777087827E-005   9.999251137820E-001   9.896514228483E-001   9.927883042920E-001   9.927883042495E-001   9.985458421487E-001   9.985458421586E-001   9.909159675972E-001   7.284835046387E-003   2.905368022215E-003   2.757879102222E-003   2.757879033618E-003   5.478612980276E-004   3.503117776085E-004   3.503117616808E-004   2.922276367043E-003   2.221222170827E-022   5.170954949997E-020   1.314022127150E-003   1.314022131072E-003   2.034704689853E-004   1.528245247749E-004   2.598066794268E-005   2.598066803775E-005   4.240823839282E-005   5.246264099292E-020   8.076480140182E-021   4.649871538298E-005   4.649871590888E-005   6.471058678585E-004   2.531135033219E-022   2.365273636093E-022   1.934437417469E-005   1.934437423950E-005   1.262495291623E-004   2.199873609623E-003   4.151096434475E-003   4.151096419709E-003   2.446446870462E-003   1.697795573257E-006   2.337327652903E-007   2.044931711869E-022   2.078164299978E-022   7.505563062754E-007   7.505563059681E-007   4.531858236109E-007   6.068410827475E-007   7.261848680403E-008     # MO Occupations (beta spin)
<rt_tddft>:     50.00000   4.734312706865E-010   4.777531925043E-010   1.554617784868E-003     # Dipole moment [Ne] (alpha spin)
<rt_tddft>:     50.00000   6.951706364076E-010   6.998886095673E-010  -2.934837016877E-002     # Dipole moment [Ne] (beta spin)
<rt_tddft>:     50.00000   1.168601907094E-009   1.177641802072E-009  -2.779375238390E-002     # Dipole moment [Ne] (total spin)
<rt_tddft>:     50.00000  -1.802714439509E-009  -1.797052265298E-009   5.638586655718E+001     # Dipole moment [Ar] (alpha spin)
<rt_tddft>:     50.00000  -1.288408255995E-009  -1.285649054053E-009   5.642080766322E+001     # Dipole moment [Ar] (beta spin)
<rt_tddft>:     50.00000  -3.091122695503E-009  -3.082701319352E-009   5.569504987476E-001     # Dipole moment [Ar] (total spin)
<rt_tddft>:     50.00000  -1.568573551724E-009  -1.559094371868E-009   5.631114640346E+001     # Dipole moment [dimer] (alpha spin)
<rt_tddft>:     50.00000  -8.042612090364E-010  -8.019998004340E-010   5.631930666991E+001     # Dipole moment [dimer] (beta spin)
<rt_tddft>:     50.00000  -2.372834760760E-009  -2.361094172302E-009   3.807293517173E-001     # Dipole moment [dimer] (total spin)
<rt_tddft>:     50.00000        ### No applied E-field ###
 Grid integrated density:      27.000002647294
 Requested integration accuracy:   0.10E-05
 Grid integrated density:      27.000002643648
 Requested integration accuracy:   0.10E-05
 Grid integrated density:      27.000002628371
 Requested integration accuracy:   0.10E-05
 Grid integrated density:      27.000002633874
 Requested integration accuracy:   0.10E-05
 Grid integrated density:      27.000002631701
 Requested integration accuracy:   0.10E-05
 Grid integrated density:      27.000002632577
 Requested integration accuracy:   0.10E-05
<rt_tddft>:     55.00000   2.886421358180E+001     # Enuc
<rt_tddft>:     55.00000  -9.561381772438E+002     # Ecore
<rt_tddft>:     55.00000   3.152213585451E+002     # Ecoul
<rt_tddft>:     55.00000  -4.256065064343E+001     # Exc(1)
<rt_tddft>:     55.00000   0.000000000000E+000     # Exc(2)
<rt_tddft>:     55.00000  -6.546132557603E+002     # Etot
<rt_tddft>:     55.00000   1.844848813656E+000     # Eadded
<rt_tddft>:     55.00000  -4.995716870345E+000     # Charge [Ne] (alpha spin)
<rt_tddft>:     55.00000  -9.004283129706E+000     # Charge [Ar] (alpha spin)
<rt_tddft>:     55.00000  -1.400000000005E+001     # Charge [dimer] (alpha spin)
<rt_tddft>:     55.00000  -3.995685429667E+000     # Charge [Ne] (beta spin)
<rt_tddft>:     55.00000  -9.004314570384E+000     # Charge [Ar] (beta spin)
<rt_tddft>:     55.00000  -1.300000000005E+001     # Charge [dimer] (beta spin)
<rt_tddft>:     55.00000  -8.991402300012E+000     # Charge [Ne] (total spin)
<rt_tddft>:     55.00000  -1.800859770009E+001     # Charge [Ar] (total spin)
<rt_tddft>:     55.00000  -2.700000000010E+001     # Charge [dimer] (total spin)
<rt_tddft>:     55.00000   1.000000000053E+000   9.999991167171E-001   9.999999840944E-001   9.999999668513E-001   9.999999668514E-001   9.999999509118E-001   9.917426142396E-001   9.999032397882E-001   9.852281897758E-001   9.815876407243E-001   9.815876406036E-001   9.990266588605E-001   9.990266588520E-001   9.950242989136E-001   5.708338442228E-003   3.707045561045E-003   9.486609606019E-004   9.486608572025E-004   6.818420158389E-003   9.612534250607E-003   9.612534082381E-003   3.214487326843E-003  -3.218862525454E-021   3.190447496044E-020   7.638445715596E-004   7.638445718497E-004   1.871702748148E-003   1.002827767414E-004   3.559889602110E-005   3.559889624499E-005   3.653222356577E-004   3.093502950018E-019   5.871573090464E-020   3.483702710568E-004   3.483702723739E-004   1.790326713675E-003   1.311673546441E-021   1.546650588774E-021   7.156683580119E-005   7.156683592900E-005   1.171766401398E-003   2.857048257437E-003   7.604575474615E-003   7.604575465785E-003   4.581960888734E-004   5.710105294152E-006   7.279903393291E-007   2.495842989850E-022   2.616083774434E-022   5.824845326219E-007   5.824845346531E-007   9.532721782188E-007   2.992900150165E-005   2.348523401943E-006     # MO Occupations (alpha spin)
[...]
<rt_tddft>:   2985.00000  -1.798789927255E+001     # Charge [Ar] (total spin)
<rt_tddft>:   2985.00000  -2.700000000801E+001     # Charge [dimer] (total spin)
<rt_tddft>:   2985.00000   1.000000003802E+000   9.999960483304E-001   9.999994570068E-001   9.999998760996E-001   9.999998758599E-001   9.999998665122E-001   9.954072174319E-001   9.997361980790E-001   9.894944690802E-001   9.739063169390E-001   9.702647075519E-001   9.995997734554E-001   9.995912762556E-001   9.955695228572E-001   2.434994089453E-003   2.343583971246E-003   3.301223663193E-004   6.711613962770E-004   4.627221810745E-003   4.461118267683E-003   3.097694020309E-003   4.308151577324E-003   7.599752903539E-011   1.897553567524E-010   4.329383248009E-004   2.476563233922E-004   1.091180319213E-003   1.387916079476E-004   3.243484703468E-005   3.210889028923E-005   1.010725942500E-004   2.792320596008E-009   1.240350740750E-011   1.949427143593E-003   3.380986790836E-003   3.062604315802E-004   2.435939929350E-008   8.199523508845E-006   1.269476094548E-004   5.979941527929E-005   3.641179208272E-004   2.071529328444E-003   2.298659312738E-002   1.887104809886E-002   1.793566937395E-003   3.715131848610E-006   1.172331187424E-005   6.301462846413E-009   1.523866495434E-007   3.682097018373E-006   6.517761394532E-007   1.631021377658E-005   1.286939947844E-004   1.725323825921E-006     # MO Occupations (alpha spin)
<rt_tddft>:   2985.00000   1.000000003796E+000   9.999942008994E-001   9.999992419734E-001   9.999999119083E-001   9.999999118923E-001   9.999997983646E-001   3.033148065000E-005   9.996269030384E-001   9.826313491191E-001   9.871479416428E-001   9.874934252390E-001   9.996305595333E-001   9.996275864355E-001   9.954618900857E-001   5.139770248858E-003   2.639913495050E-003   1.896629415277E-003   1.684563970735E-003   5.756154198985E-003   6.348150241807E-003   7.180412172225E-003   3.373367371649E-003   8.159867230726E-011   6.356271731938E-010   7.448274308744E-004   8.272151933825E-004   6.956989190692E-004   5.180369844184E-005   2.461657658901E-005   2.624850448814E-005   1.249590974490E-004   2.494729617560E-010   4.183294890317E-012   4.301381387598E-005   5.467354148360E-005   2.582828964978E-004   1.001960472855E-008   2.620168447988E-007   8.143024452316E-006   1.995564239981E-006   3.080205707269E-004   2.011522892148E-003   3.557068714545E-003   3.677204578552E-003   1.891187086240E-003   1.552713033539E-006   3.627283323008E-006   4.098871169734E-009   5.756776229610E-008   9.481725436817E-006   9.105138557512E-006   3.657668665127E-006   2.888832859421E-006   8.573910819157E-007     # MO Occupations (beta spin)
<rt_tddft>:   2985.00000   1.114851823686E-003   1.143067448107E-003  -4.150707837792E-002     # Dipole moment [Ne] (alpha spin)
<rt_tddft>:   2985.00000   3.930815713197E-004   4.036438498887E-004  -2.366821908029E-002     # Dipole moment [Ne] (beta spin)
<rt_tddft>:   2985.00000   1.507933395006E-003   1.546711297996E-003  -6.517529745821E-002     # Dipole moment [Ne] (total spin)
<rt_tddft>:   2985.00000   1.075716721556E-005   1.104454163989E-005   5.626257821655E+001     # Dipole moment [Ar] (alpha spin)
<rt_tddft>:   2985.00000   9.757336975145E-006   9.981852334722E-006   5.620022648158E+001     # Dipole moment [Ar] (beta spin)
<rt_tddft>:   2985.00000   2.051450419070E-005   2.102639397461E-005   2.130809764727E-001     # Dipole moment [Ar] (total spin)
<rt_tddft>:   2985.00000   6.999890892304E-004   7.143467626963E-004   5.618598426170E+001     # Dipole moment [dimer] (alpha spin)
<rt_tddft>:   2985.00000   1.532394471443E-004   1.561473443045E-004   5.617229910073E+001     # Dipole moment [dimer] (beta spin)
<rt_tddft>:   2985.00000   8.532285363747E-004   8.704941070008E-004   1.085596407749E-001     # Dipole moment [dimer] (total spin)
<rt_tddft>:   2985.00000        ### No applied E-field ###
 Grid integrated density:      27.000002650429
 Requested integration accuracy:   0.10E-05
 Grid integrated density:      27.000002638492
 Requested integration accuracy:   0.10E-05
 Grid integrated density:      27.000002641763
 Requested integration accuracy:   0.10E-05
 Grid integrated density:      27.000002641167
 Requested integration accuracy:   0.10E-05
 Grid integrated density:      27.000002641657
 Requested integration accuracy:   0.10E-05
<rt_tddft>:   2990.00000   2.886421358180E+001     # Enuc
<rt_tddft>:   2990.00000  -9.566592893272E+002     # Ecore
<rt_tddft>:   2990.00000   3.158215689776E+002     # Ecoul
<rt_tddft>:   2990.00000  -4.263996428570E+001     # Exc(1)
<rt_tddft>:   2990.00000   0.000000000000E+000     # Exc(2)
<rt_tddft>:   2990.00000  -6.546134710535E+002     # Etot
<rt_tddft>:   2990.00000   1.844633520455E+000     # Eadded
<rt_tddft>:   2990.00000  -4.991280603657E+000     # Charge [Ne] (alpha spin)
<rt_tddft>:   2990.00000  -9.008719400311E+000     # Charge [Ar] (alpha spin)
<rt_tddft>:   2990.00000  -1.400000000397E+001     # Charge [dimer] (alpha spin)
<rt_tddft>:   2990.00000  -4.007844091469E+000     # Charge [Ne] (beta spin)
<rt_tddft>:   2990.00000  -8.992155912590E+000     # Charge [Ar] (beta spin)
<rt_tddft>:   2990.00000  -1.300000000406E+001     # Charge [dimer] (beta spin)
<rt_tddft>:   2990.00000  -8.999124695126E+000     # Charge [Ne] (total spin)
<rt_tddft>:   2990.00000  -1.800087531290E+001     # Charge [Ar] (total spin)
<rt_tddft>:   2990.00000  -2.700000000803E+001     # Charge [dimer] (total spin)
<rt_tddft>:   2990.00000   1.000000003833E+000   9.999958595490E-001   9.999994514932E-001   9.999998724701E-001   9.999998721209E-001   9.999998671394E-001   9.974216617693E-001   9.996994739906E-001   9.913913876613E-001   9.739632653361E-001   9.701085615478E-001   9.989631411829E-001   9.989684293209E-001   9.950441946611E-001   3.281291728037E-003   1.192976736067E-003   6.703479860403E-004   5.065699313696E-004   4.790886138840E-003   4.881393170627E-003   3.818303540125E-003   1.443871450074E-003   7.277843603464E-011   1.257600737026E-010   7.611189791867E-004   9.387054574452E-004   8.085901809965E-004   1.444675151336E-004   2.261899183650E-005   2.140174879928E-005   1.266160228107E-004   5.159656256975E-009   1.933564947506E-011   3.856354303589E-003   5.420343544591E-003   1.405062391472E-004   2.774504699040E-008   9.606931211924E-006   3.576370025003E-004   2.124540666508E-004   8.847703417259E-004   1.944410769702E-003   2.014882047537E-002   1.641535664826E-002   1.516538646164E-003   3.211671725264E-006   7.123904056454E-006   9.804407095848E-009   1.104726883074E-007   1.061613553273E-005   3.728048384686E-006   1.883577575187E-005   8.379234542935E-005   1.542065020931E-006     # MO Occupations (alpha spin)
<rt_tddft>:   2990.00000   1.000000003812E+000   9.999942151541E-001   9.999992236348E-001   9.999998981032E-001   9.999998979106E-001   9.999997930988E-001   7.378826163579E-005   9.996350175868E-001   9.803622799513E-001   9.870559643033E-001   9.875949133317E-001   9.990348775382E-001   9.990401396297E-001   9.894317154062E-001   8.982299901768E-003   2.664968887948E-003   1.484626117741E-003   1.282844053117E-003   6.797996578441E-003   7.221134636718E-003   8.273711585556E-003   5.048265174385E-003   6.648711664914E-011   6.617775824525E-010   7.469123913113E-004   8.315607469150E-004   1.722490538125E-003   8.327557680173E-005   2.052230179239E-005   1.897491030822E-005   8.052122599763E-005   1.254813356507E-010   5.476867449510E-012   3.736514742643E-005   3.115714727117E-005   1.549051711411E-004   1.094746833540E-008   2.014557015424E-007   3.622420736796E-005   1.735785226376E-005   1.845654954763E-004   1.708522070844E-003   3.489241107098E-003   3.754503029024E-003   3.073644440923E-003   1.695540911103E-006   6.248131345887E-007   2.510489483686E-009   6.469328055200E-008   9.903725404141E-006   1.044255587234E-005   3.059832772988E-006   3.842853725574E-006   8.362536469546E-007     # MO Occupations (beta spin)
<rt_tddft>:   2990.00000  -2.262454378129E-004  -2.244083219104E-004  -3.627662102854E-002     # Dipole moment [Ne] (alpha spin)
<rt_tddft>:   2990.00000   5.544375028668E-004   5.669935735327E-004  -1.838357371779E-002     # Dipole moment [Ne] (beta spin)
<rt_tddft>:   2990.00000   3.281920650539E-004   3.425852516223E-004  -5.466019474633E-002     # Dipole moment [Ne] (total spin)
<rt_tddft>:   2990.00000  -9.530367887410E-006  -9.709415674500E-006   5.624726878346E+001     # Dipole moment [Ar] (alpha spin)
<rt_tddft>:   2990.00000  -2.044287404450E-005  -2.087133428577E-005   5.641163836710E+001     # Dipole moment [Ar] (beta spin)
<rt_tddft>:   2990.00000  -2.997324193191E-005  -3.058074996027E-005   4.091834288999E-001     # Dipole moment [Ar] (total spin)
<rt_tddft>:   2990.00000  -9.635562107958E-006  -9.389230665051E-006   5.622934479434E+001     # Dipole moment [dimer] (alpha spin)
<rt_tddft>:   2990.00000   2.234709873379E-004   2.267979357827E-004   5.633708798880E+001     # Dipole moment [dimer] (beta spin)
<rt_tddft>:   2990.00000   2.138354252300E-004   2.174087051176E-004   3.167090614908E-001     # Dipole moment [dimer] (total spin)
<rt_tddft>:   2990.00000        ### No applied E-field ###
 Grid integrated density:      27.000002673696
 Requested integration accuracy:   0.10E-05
 Grid integrated density:      27.000002702512
 Requested integration accuracy:   0.10E-05
 Grid integrated density:      27.000002686697
 Requested integration accuracy:   0.10E-05
 Grid integrated density:      27.000002692865
 Requested integration accuracy:   0.10E-05
 Grid integrated density:      27.000002690590
 Requested integration accuracy:   0.10E-05
<rt_tddft>:   2995.00000   2.886421358180E+001     # Enuc
<rt_tddft>:   2995.00000  -9.570331930168E+002     # Ecore
<rt_tddft>:   2995.00000   3.162447693420E+002     # Ecoul
<rt_tddft>:   2995.00000  -4.268926541061E+001     # Exc(1)
<rt_tddft>:   2995.00000   0.000000000000E+000     # Exc(2)
<rt_tddft>:   2995.00000  -6.546134755036E+002     # Etot
<rt_tddft>:   2995.00000   1.844629070374E+000     # Eadded
<rt_tddft>:   2995.00000  -4.990858211299E+000     # Charge [Ne] (alpha spin)
<rt_tddft>:   2995.00000  -9.009141792675E+000     # Charge [Ar] (alpha spin)
<rt_tddft>:   2995.00000  -1.400000000397E+001     # Charge [dimer] (alpha spin)
<rt_tddft>:   2995.00000  -3.996965484997E+000     # Charge [Ne] (beta spin)
<rt_tddft>:   2995.00000  -9.003034519069E+000     # Charge [Ar] (beta spin)
<rt_tddft>:   2995.00000  -1.300000000407E+001     # Charge [dimer] (beta spin)
<rt_tddft>:   2995.00000  -8.987823696296E+000     # Charge [Ne] (total spin)
<rt_tddft>:   2995.00000  -1.801217631174E+001     # Charge [Ar] (total spin)
<rt_tddft>:   2995.00000  -2.700000000804E+001     # Charge [dimer] (total spin)
<rt_tddft>:   2995.00000   1.000000003833E+000   9.999956838290E-001   9.999994763412E-001   9.999998820038E-001   9.999998817142E-001   9.999998649320E-001   9.931378513244E-001   9.996786063691E-001   9.896518909666E-001   9.742902889902E-001   9.704356558568E-001   9.990842447580E-001   9.990790213190E-001   9.954249153815E-001   2.978389529742E-003   2.073423811384E-003   1.123169548573E-003   4.444943806583E-004   4.813758861469E-003   4.695993133297E-003   3.843875679343E-003   4.794481065540E-003   7.813043399167E-011   1.538660110373E-010   1.165179570102E-003   1.234404905700E-003   1.707126161303E-003   1.960471350507E-004   2.366646197222E-005   2.715716273671E-005   7.602475379240E-005   6.021925456738E-009   1.761283745355E-011   5.367983488191E-003   6.535562505910E-003   2.365529605602E-004   3.029878735518E-008   9.446698020180E-006   6.553699016885E-004   4.416793110186E-004   1.164365326692E-003   2.582260196193E-003   1.773174993594E-002   1.385415667664E-002   1.223215662637E-003   2.093943640616E-006   1.365887782084E-005   8.857626712637E-009   1.262065446550E-007   1.279804362577E-005   5.598782960787E-006   1.476466201381E-005   1.707943858770E-004   3.321201185968E-006     # MO Occupations (alpha spin)
<rt_tddft>:   2995.00000   1.000000003797E+000   9.999947359960E-001   9.999992488639E-001   9.999999161106E-001   9.999999162021E-001   9.999997807493E-001   3.947415131564E-006   9.996113080247E-001   9.778493372065E-001   9.867367883635E-001   9.875500311285E-001   9.991504475147E-001   9.991435322794E-001   9.986917920917E-001   2.558970958626E-003   1.727243539037E-003   1.100793375531E-003   9.255678444234E-004   7.723069505641E-003   7.540296788359E-003   8.661994305791E-003   4.295491971530E-003   6.823602715536E-011   4.691388110924E-010   9.949677892615E-004   8.325272586069E-004   1.666806803302E-003   7.510745040285E-005   2.309384388500E-005   2.410588880583E-005   2.239886287024E-004   1.816029331149E-010   7.369174509074E-012   4.755917126516E-005   2.689672981930E-005   1.073852590814E-004   1.583848792403E-008   2.079860590144E-007   6.758777742583E-005   4.439456435377E-005   1.440440181957E-004   1.533214520717E-003   3.333859991857E-003   3.762651449592E-003   3.792912368211E-003   1.424099009749E-006   9.316419195119E-007   1.299863702700E-009   6.533329188239E-008   1.218986339236E-005   1.255481660637E-005   1.596462771252E-006   4.926349778499E-006   7.721035476658E-007     # MO Occupations (beta spin)
<rt_tddft>:   2995.00000  -1.384521816561E-003  -1.417375549378E-003  -1.477106535980E-002     # Dipole moment [Ne] (alpha spin)
<rt_tddft>:   2995.00000   4.172605134313E-004   4.260222216349E-004  -2.144031670003E-004     # Dipole moment [Ne] (beta spin)
<rt_tddft>:   2995.00000  -9.672613031301E-004  -9.913533277428E-004  -1.498546852680E-002     # Dipole moment [Ne] (total spin)
<rt_tddft>:   2995.00000   3.035504843466E-005   3.115183066392E-005   5.623592763418E+001     # Dipole moment [Ar] (alpha spin)
<rt_tddft>:   2995.00000  -1.567773956817E-005  -1.604298632506E-005   5.618328030201E+001     # Dipole moment [Ar] (beta spin)
<rt_tddft>:   2995.00000   1.467730886649E-005   1.510884433886E-005   1.694842145318E-001     # Dipole moment [Ar] (total spin)
<rt_tddft>:   2995.00000  -5.953868235639E-004  -6.110676428519E-004   5.618301632803E+001     # Dipole moment [dimer] (alpha spin)
<rt_tddft>:   2995.00000  -3.821881396257E-006  -6.673531752790E-006   5.619507774595E+001     # Dipole moment [dimer] (beta spin)
<rt_tddft>:   2995.00000  -5.992087049602E-004  -6.177411746047E-004   1.283703523301E-001     # Dipole moment [dimer] (total spin)
<rt_tddft>:   2995.00000        ### No applied E-field ###
 Grid integrated density:      27.000002558504
 Requested integration accuracy:   0.10E-05
 Grid integrated density:      27.000002556059
 Requested integration accuracy:   0.10E-05
 Grid integrated density:      27.000002559167
 Requested integration accuracy:   0.10E-05
 Grid integrated density:      27.000002558840
 Requested integration accuracy:   0.10E-05
 Grid integrated density:      27.000002559484
 Requested integration accuracy:   0.10E-05
<rt_tddft>:   3000.00000        ### Propagation finished ###

 Task  times  cpu:     6534.0s     wall:     4854.0s
 Summary of allocated global arrays
-----------------------------------
  No active global arrays



                         GA Statistics for process    0
                         ------------------------------

       create   destroy   get      put      acc     scatter   gather  read&inc
calls: 2.78e+05 2.78e+05 7.26e+06 5.91e+06 1.31e+06 6.48e+04    0     2.38e+05 
number of processes/call -2.09e+11 -7.76e+11 3.99e+12 0.00e+00 0.00e+00
bytes total:             3.51e+10 2.55e+10 7.86e+09 4.32e+02 0.00e+00 1.91e+06
bytes remote:            0.00e+00 0.00e+00 0.00e+00 0.00e+00 0.00e+00 0.00e+00
Max memory consumed for GA by this process: 2286144 bytes
MA_summarize_allocated_blocks: starting scan ...
MA_summarize_allocated_blocks: scan completed: 0 heap blocks, 0 stack blocks
MA usage statistics:

	allocation statistics:
					      heap	     stack
					      ----	     -----
	current number of blocks	         0	         0
	maximum number of blocks	        16	        47
	current total bytes		         0	         0
	maximum total bytes		   2956296	  19130552
	maximum total K-bytes		      2957	     19131
	maximum total M-bytes		         3	        20


                                NWChem Input Module
                                -------------------





                                     CITATION
                                     --------
                Please cite the following reference when publishing
                           results obtained with NWChem:

          E. Apr, E. J. Bylaska, W. A. de Jong, N. Govind, K. Kowalski,
       T. P. Straatsma, M. Valiev, H. J. J. van Dam, Y. Alexeev, J. Anchell,
       V. Anisimov, F. W. Aquino, R. Atta-Fynn, J. Autschbach, N. P. Bauman,
     J. C. Becca, D. E. Bernholdt, K. Bhaskaran-Nair, S. Bogatko, P. Borowski,
        J. Boschen, J. Brabec, A. Bruner, E. Caut, Y. Chen, G. N. Chuev,
      C. J. Cramer, J. Daily, M. J. O. Deegan, T. H. Dunning Jr., M. Dupuis,
   K. G. Dyall, G. I. Fann, S. A. Fischer, A. Fonari, H. Frchtl, L. Gagliardi,
      J. Garza, N. Gawande, S. Ghosh, K. Glaesemann, A. W. Gtz, J. Hammond,
       V. Helms, E. D. Hermes, K. Hirao, S. Hirata, M. Jacquelin, L. Jensen,
   B. G. Johnson, H. Jnsson, R. A. Kendall, M. Klemm, R. Kobayashi, V. Konkov,
      S. Krishnamoorthy, M. Krishnan, Z. Lin, R. D. Lins, R. J. Littlefield,
      A. J. Logsdail, K. Lopata, W. Ma, A. V. Marenich, J. Martin del Campo,
   D. Mejia-Rodriguez, J. E. Moore, J. M. Mullin, T. Nakajima, D. R. Nascimento,
    J. A. Nichols, P. J. Nichols, J. Nieplocha, A. Otero-de-la-Roza, B. Palmer,
    A. Panyala, T. Pirojsirikul, B. Peng, R. Peverati, J. Pittner, L. Pollack,
   R. M. Richard, P. Sadayappan, G. C. Schatz, W. A. Shelton, D. W. Silverstein,
   D. M. A. Smith, T. A. Soares, D. Song, M. Swart, H. L. Taylor, G. S. Thomas,
            V. Tipparaju, D. G. Truhlar, K. Tsemekhman, T. Van Voorhis,
     . Vzquez-Mayagoitia, P. Verma, O. Villa, A. Vishnu, K. D. Vogiatzis,
        D. Wang, J. H. Weare, M. J. Williamson, T. L. Windus, K. Woliski,
        A. T. Wong, Q. Wu, C. Yang, Q. Yu, M. Zacharias, Z. Zhang, Y. Zhao,
                                and R. J. Harrison
                        "NWChem: Past, present, and future
                         J. Chem. Phys. 152, 184102 (2020)
                               doi:10.1063/5.0004997

                                      AUTHORS
                                      -------
     E. Apra, E. J. Bylaska, N. Govind, K. Kowalski, M. Valiev, W. A. de Jong,
      T. P. Straatsma, H. J. J. van Dam, D. Wang, T. L. Windus, N. P. Bauman,
       A. Panyala, J. Hammond, J. Autschbach, K. Bhaskaran-Nair, J. Brabec,
    K. Lopata, S. A. Fischer, S. Krishnamoorthy, M. Jacquelin, W. Ma, M. Klemm,
       O. Villa, Y. Chen, V. Anisimov, F. Aquino, S. Hirata, M. T. Hackler,
           Eric Hermes, L. Jensen, J. E. Moore, J. C. Becca, V. Konjkov,
            D. Mejia-Rodriguez, T. Risthaus, M. Malagoli, A. Marenich,
   A. Otero-de-la-Roza, J. Mullin, P. Nichols, R. Peverati, J. Pittner, Y. Zhao,
        P.-D. Fan, A. Fonari, M. J. Williamson, R. J. Harrison, J. R. Rehr,
      M. Dupuis, D. Silverstein, D. M. A. Smith, J. Nieplocha, V. Tipparaju,
      M. Krishnan, B. E. Van Kuiken, A. Vazquez-Mayagoitia, M. Swart, Q. Wu,
   T. Van Voorhis, A. A. Auer, M. Nooijen, L. D. Crosby, E. Brown, G. Cisneros,
     G. I. Fann, H. Fruchtl, J. Garza, K. Hirao, R. A. Kendall, J. A. Nichols,
       K. Tsemekhman, K. Wolinski, J. Anchell, D. E. Bernholdt, P. Borowski,
       T. Clark, D. Clerc, H. Dachsel, M. J. O. Deegan, K. Dyall, D. Elwood,
      E. Glendening, M. Gutowski, A. C. Hess, J. Jaffe, B. G. Johnson, J. Ju,
        R. Kobayashi, R. Kutteh, Z. Lin, R. Littlefield, X. Long, B. Meng,
      T. Nakajima, S. Niu, L. Pollack, M. Rosing, K. Glaesemann, G. Sandrone,
      M. Stave, H. Taylor, G. Thomas, J. H. van Lenthe, A. T. Wong, Z. Zhang.

 Total times  cpu:     6534.0s     wall:     4854.2s
