 argument  1 = NeAr3.3_aDZ_dtime.1.re



============================== echo of input deck ==============================
echo

permanent_dir ./per
scratch_dir ./scr

restart NeAr3.3_aDZ_dtime.1

rt_tddft
  tmax 3000
  dt 1
  load restart
  print charge dipole field energy moocc

#  mocap
#    expconst 1.0     # exponential constant for CAP
#    emin 0.07         # any MO with eigenvalue >= 0.5 Ha will have CAP applied to it
#    prefac 1.0       # prefactor for exponential
#    maxval 1000.0    # clamp CAP at this value (in Ha)
#    on               # turn off CAP
#    nochecks         # disable checks for speed
##    noprint          # don't print CAP value
#  end

end
task dft rt_tddft
================================================================================


                                         
                                         


             Northwest Computational Chemistry Package (NWChem) 7.0.2
             --------------------------------------------------------


                    Environmental Molecular Sciences Laboratory
                       Pacific Northwest National Laboratory
                                Richland, WA 99352

                              Copyright (c) 1994-2020
                       Pacific Northwest National Laboratory
                            Battelle Memorial Institute

             NWChem is an open-source computational chemistry package
                        distributed under the terms of the
                      Educational Community License (ECL) 2.0
             A copy of the license is included with this distribution
                              in the LICENSE.TXT file

                                  ACKNOWLEDGMENT
                                  --------------

            This software and its documentation were developed at the
            EMSL at Pacific Northwest National Laboratory, a multiprogram
            national laboratory, operated for the U.S. Department of Energy
            by Battelle under Contract Number DE-AC05-76RL01830. Support
            for this work was provided by the Department of Energy Office
            of Biological and Environmental Research, Office of Basic
            Energy Sciences, and the Office of Advanced Scientific Computing.


           Job information
           ---------------

    hostname        = atl1-1-02-004-7-2.pace.gatech.edu
    program         = nwchem
    date            = Wed Jan 11 13:29:30 2023

    compiled        = Thu_May_20_07:57:16_2021
    source          = /home/conda/feedstock_root/build_artifacts/nwchem_1621493927360/work
    nwchem branch   = 7.0.2
    nwchem revision = d613826
    ga revision     = 5.7.2
    use scalapack   = T
    input           = NeAr3.3_aDZ_dtime.1.re
    prefix          = NeAr3.3_aDZ_dtime.1.
    data base       = ./per/NeAr3.3_aDZ_dtime.1.db
    status          = restart
    nproc           =        1
    time left       =     -1s



           Memory information
           ------------------

    heap     =   13107200 doubles =    100.0 Mbytes
    stack    =   13107197 doubles =    100.0 Mbytes
    global   =   26214400 doubles =    200.0 Mbytes (distinct from heap & stack)
    total    =   52428797 doubles =    400.0 Mbytes
    verify   = yes
    hardfail = no 


           Directory information
           ---------------------

  0 permanent = ./per
  0 scratch   = ./scr


           Previous task information
           -------------------------

    Theory    = dft                             
    Operation = rt_tddft                      
    Status    = unknown                       
    Qmmm      = F
    Ignore    = F


           Geometries in the database
           --------------------------

       Name                              Natoms  Last Modified
       --------------------------------  ------  ------------------------
    1  Ne                                     1  Wed Jan 11 11:39:38 2023  
    2  Ar                                     1  Wed Jan 11 11:39:38 2023  
    3  dimer                                  2  Wed Jan 11 11:39:38 2023  

  The geometry named "dimer" is the default for restart



           Basis sets in the database
           --------------------------

       Name                              Natoms  Last Modified
        --------------------------------  ------  ------------------------
    1  ao basis                               0  Wed Jan 11 11:39:38 2023  

  The basis set named "ao basis" is the default AO basis for restart




                                NWChem Input Module
                                -------------------



                           NWChem Real-Time TDDFT Module
                           -----------------------------




 Summary of "ao basis" -> "ao basis" (cartesian)
 ------------------------------------------------------------------------------
       Tag                 Description            Shells   Functions and Types
 ---------------- ------------------------------  ------  ---------------------
 Ne                       aug-cc-pvdz                9       25   4s3p2d
 Ar                       aug-cc-pvdz               11       29   5s4p2d


  int_init: cando_txs set to always be  F
  Caching 1-el integrals 

            General Information
            -------------------
          SCF calculation type: DFT
          Wavefunction type:  spin polarized.
          No. of atoms     :     2
          No. of electrons :    28
           Alpha electrons :    14
            Beta electrons :    14
          Charge           :     0
          Spin multiplicity:     1
          Use of symmetry is: off; symmetry adaption is: off
          Maximum number of iterations:  30
          This is a Direct SCF calculation.
          AO basis - number of functions:    54
                     number of shells:    20
          Convergence on energy requested:  1.00D-06
          Convergence on density requested:  1.00D-05
          Convergence on gradient requested:  5.00D-04

              XC Information
              --------------
                     Hartree-Fock (Exact) Exchange  1.000          
                   CAM-Becke88 Exchange Functional  1.000          
                      VWN V Correlation Functional  0.190 local    
              Lee-Yang-Parr Correlation Functional  0.810          

           Range-Separation Parameters        
           ---------------------------
           Alpha           :  0.19
           Beta            :  0.46
           Gamma           :  0.33
           Short-Range HF  :     F

             Grid Information
             ----------------
          Grid used for XC integration:  medium    
          Radial quadrature: Mura-Knowles        
          Angular quadrature: Lebedev. 
          Tag              B.-S. Rad. Rad. Pts. Rad. Cut. Ang. Pts.
          ---              ---------- --------- --------- ---------
          Ne                  0.50       49          12.0       434
          Ar                  1.00       88          10.0       590
          Grid pruning is: on 
          Number of quadrature shells:   137
          Spatial weights used:  Erf1

          Convergence Information
          -----------------------
          Convergence aids based upon iterative change in 
          total energy or number of iterations. 
          Levelshifting, if invoked, occurs when the 
          HOMO/LUMO gap drops below (HL_TOL):  1.00D-02
          DIIS, if invoked, will attempt to extrapolate 
          using up to (NFOCK): 10 stored Fock matrices.

                    Damping( 0%)  Levelshifting(0.5)       DIIS
                  --------------- ------------------- ---------------
          dE  on:    start            ASAP                start   
          dE off:    2 iters         30 iters            30 iters 


      Screening Tolerance Information
      -------------------------------
          Density screening/tol_rho:  1.00D-10
          AO Gaussian exp screening on grid/accAOfunc:  14
          CD Gaussian exp screening on grid/accCDfunc:  20
          XC Gaussian exp screening on grid/accXCfunc:  20
          Schwarz screening/accCoul:  1.00D-08

  
 ***********************
 * Open-shell RT-TDDFT *
 ***********************
  
 
****************************** WARNING ****************************** 
  Schwartz screening tolerance is similar to the Magnus interpolation  
  tolerance--this may cause problems with convergence.  If  
  so, try loosening tol_interpol. 
********************************************************************* 
 
  
  
 Geometry               Atoms      Basis func.   Nuc. charge          Nuc. dip. mom.
 -----------------------------------------------------------------------------------------
  Ne                   1 ( 50% )    25 ( 46% )     10.00        0.00      0.00      0.00
  Ar                   1 ( 50% )    29 ( 53% )     18.00        0.00      0.00    112.25
 *dimer                2 (100% )    54 (100% )     28.00        0.00      0.00    112.25

=============== Geometry Initialization ===============
  Active geometry: "dimer"
  No linear dependencies
  Number of atomic orbitals    = 54
  Number of molecular orbitals = 54
=======================================================

 
 
             System parameters
             -----------------
     No. atoms              : 2
     Wavefunction type      : spin polarized
     No. alpha electrons    : 14
     No. beta electrons     : 14
     Total no. electrons    : 28
     System charge          : 0
 
 
               2e integrals
               ------------
     tol2e for real part of Fock matrix: 1.0000E-08
     tol2e for imag part of Fock matrix: 1.0000E-10
 
 
                    Propagation parameters
                    ----------------------
     End time (tmax)       : 3.0000E+03 au = 7.2567E+01 fs
     Time step (dt)        : 1.0000E+00 au = 2.4189E-02 fs
     No. time steps (nt)   : 3000
     Progagation method    : 2nd order Magnus w/ self-consistent interpolation
     Exponentiation method : Adaptive contractive power series
 
 
                        Tolerances
                        ----------
     Zero / comparison / check tolerance  : 1.0000E-08
     Series convergence tolerance         : 1.0000E-10
     Interpolation convergence tolerance  : 1.0000E-07
     Reqd no. zero terms in series        : 3
     Reqd no. zero terms in interpolation : 1
 
 
                Output and checking parameters
                ------------------------------
     Quantites to print : messages, dipole, field, moocc, energy, charge
     No. print points   : 3000 (once every 1 time steps)
     No. checks         : 10 (once every 300 time steps)
     No. restart points : 100 (once every 30 time steps)
     Checking level     : 1 (checkpoints only)
     Profiling          : No
 
 
 Dipole and quadrupole matrices
 ------------------------------
     Center of mass = ( 0.0000E+00,  0.0000E+00,  4.1566E+00)
     norm[D_x]  = 1.9543E+00
     norm[D_y]  = 1.9543E+00
     norm[D_z]  = 6.2361E+00
     norm[Q_xx] = 1.4071E+01
     norm[Q_xy] = 4.6904E+00
     norm[Q_xz] = 1.2187E+01
     norm[Q_yy] = 1.4071E+01
     norm[Q_yz] = 1.2187E+01
     norm[Q_zz] = 5.2960E+01
 
 
         Applied fields
         --------------
     (none specified)
 
 
        Excitation rules
        ----------------
     (none specified--system will not be excited)
 
 
                              Open shell propagation
                              ----------------------
 
 
 Initial state: Imported open shell MO eigenvectors
 --------------------------------------------------
 
****************************** WARNING ****************************** 
  Starting movecs not specified--trying SCF output: 
   ./NeAr3.3_aDZ_dtime.1.movecs 
********************************************************************* 
 
 
   Vector      Occupation     Eigenvalue [au]
 --------------------------------------------
         1        1.00       -1.15190107E+02
         2        1.00       -3.10825329E+01
         3        1.00       -1.12186176E+01
         4        1.00       -8.76997306E+00
         5        1.00       -8.76997306E+00
         6        1.00       -8.76996448E+00
         7        1.00       -1.54576711E+00
         8        1.00       -1.05169000E+00
         9        1.00       -6.49604957E-01
        10        1.00       -6.49179038E-01
        11        1.00       -6.49179038E-01
        12        1.00       -4.95334864E-01
        13        1.00       -4.95334864E-01
        14        1.00       -4.95097278E-01
        15        0.00        7.96129275E-02
        16        0.00        1.07948937E-01
        17        0.00        1.10356988E-01
        18        0.00        1.10356989E-01
        19        0.00        2.18577397E-01
        20        0.00        2.37862036E-01
        21        0.00        2.37862036E-01
        22        0.00        2.86054196E-01
        23        0.00        4.28292979E-01
        24        0.00        4.28293294E-01
        25        0.00        4.37864464E-01
        26        0.00        4.37864464E-01
        27        0.00        5.16383185E-01
        28        0.00        6.45268659E-01
        29        0.00        8.11809571E-01
        30        0.00        8.11809572E-01
        31        0.00        8.23610776E-01
        32        0.00        1.39119314E+00
        33        0.00        1.39119681E+00
        34        0.00        1.39310242E+00
        35        0.00        1.39310242E+00
        36        0.00        1.40841369E+00
        37        0.00        1.56362461E+00
        38        0.00        1.56362484E+00
        39        0.00        1.56789987E+00
        40        0.00        1.56789987E+00
        41        0.00        1.59141544E+00
        42        0.00        1.67439046E+00
        43        0.00        1.69743475E+00
        44        0.00        1.69743475E+00
        45        0.00        1.80007236E+00
        46        0.00        2.51078752E+00
        47        0.00        5.82649222E+00
        48        0.00        5.93127014E+00
        49        0.00        5.93127023E+00
        50        0.00        5.93251495E+00
        51        0.00        5.93251495E+00
        52        0.00        5.98123112E+00
        53        0.00        7.72730128E+00
        54        0.00        1.76906161E+01
 
 
   Vector      Occupation     Eigenvalue [au]
 --------------------------------------------
         1        1.00       -1.15190107E+02
         2        1.00       -3.10825329E+01
         3        1.00       -1.12186176E+01
         4        1.00       -8.76997306E+00
         5        1.00       -8.76997306E+00
         6        1.00       -8.76996448E+00
         7        1.00       -1.54576711E+00
         8        1.00       -1.05169000E+00
         9        1.00       -6.49604957E-01
        10        1.00       -6.49179038E-01
        11        1.00       -6.49179038E-01
        12        1.00       -4.95334864E-01
        13        1.00       -4.95334864E-01
        14        1.00       -4.95097278E-01
        15        0.00        7.96129275E-02
        16        0.00        1.07948937E-01
        17        0.00        1.10356988E-01
        18        0.00        1.10356989E-01
        19        0.00        2.18577397E-01
        20        0.00        2.37862036E-01
        21        0.00        2.37862036E-01
        22        0.00        2.86054196E-01
        23        0.00        4.28292979E-01
        24        0.00        4.28293294E-01
        25        0.00        4.37864464E-01
        26        0.00        4.37864464E-01
        27        0.00        5.16383185E-01
        28        0.00        6.45268659E-01
        29        0.00        8.11809571E-01
        30        0.00        8.11809572E-01
        31        0.00        8.23610776E-01
        32        0.00        1.39119314E+00
        33        0.00        1.39119681E+00
        34        0.00        1.39310242E+00
        35        0.00        1.39310242E+00
        36        0.00        1.40841369E+00
        37        0.00        1.56362461E+00
        38        0.00        1.56362484E+00
        39        0.00        1.56789987E+00
        40        0.00        1.56789987E+00
        41        0.00        1.59141544E+00
        42        0.00        1.67439046E+00
        43        0.00        1.69743475E+00
        44        0.00        1.69743475E+00
        45        0.00        1.80007236E+00
        46        0.00        2.51078752E+00
        47        0.00        5.82649222E+00
        48        0.00        5.93127014E+00
        49        0.00        5.93127023E+00
        50        0.00        5.93251495E+00
        51        0.00        5.93251495E+00
        52        0.00        5.98123112E+00
        53        0.00        7.72730128E+00
        54        0.00        1.76906161E+01
 

 Grid_pts file          = ./scr/NeAr3.3_aDZ_dtime.1.gridpts.0
 Record size in doubles =  12289        No. of grid_pts per rec  =   3070
 Max. records in memory =     30        Max. recs in file   =   5318118

 
========= Restart Information ==========
 file name     ./per/NeAr3.3_aDZ_dtime.1.rt_restart
 creation time Sat Jun 30 07:49:38 2022                          
 import time   Wed Jan 11 13:29:32 2023                          
 nmats         2
 nbf_ao        54
 it            0
 t               0.000000000000E+00
========================================
 
<rt_tddft>:      0.00000        ### Loaded restart file ###
<rt_tddft>:      0.00000        ### Propagation successfully restarted ###
 Grid integrated density:      27.000002537203
 Requested integration accuracy:   0.10E-05
 Grid integrated density:      27.000002537203
 Requested integration accuracy:   0.10E-05
<rt_tddft>:      0.00000        ### Checks passed ###
<rt_tddft>:      0.00000   2.886421358180E+001     # Enuc
<rt_tddft>:      0.00000  -9.541387235740E+002     # Ecore
<rt_tddft>:      0.00000   3.129301100396E+002     # Ecoul
<rt_tddft>:      0.00000  -4.226884847102E+001     # Exc(1)
<rt_tddft>:      0.00000   0.000000000000E+000     # Exc(2)
<rt_tddft>:      0.00000  -6.546132484237E+002     # Etot
<rt_tddft>:      0.00000   1.844856150293E+000     # Eadded
<rt_tddft>:      0.00000  -5.000916304430E+000     # Charge [Ne] (alpha spin)
<rt_tddft>:      0.00000  -8.999083695552E+000     # Charge [Ar] (alpha spin)
<rt_tddft>:      0.00000  -1.399999999998E+001     # Charge [dimer] (alpha spin)
<rt_tddft>:      0.00000  -4.000385850726E+000     # Charge [Ne] (beta spin)
<rt_tddft>:      0.00000  -8.999614149257E+000     # Charge [Ar] (beta spin)
<rt_tddft>:      0.00000  -1.299999999998E+001     # Charge [dimer] (beta spin)
<rt_tddft>:      0.00000  -9.001302155156E+000     # Charge [Ne] (total spin)
<rt_tddft>:      0.00000  -1.799869784481E+001     # Charge [Ar] (total spin)
<rt_tddft>:      0.00000  -2.699999999997E+001     # Charge [dimer] (total spin)
<rt_tddft>:      0.00000   1.000000000025E+000   1.000000000013E+000   9.999999999978E-001   9.999999999746E-001   9.999999999746E-001   9.999999999967E-001   9.999999999959E-001   9.999999999989E-001   1.000000000002E+000   9.999999999968E-001   1.000000000008E+000   9.999999999973E-001   9.999999999973E-001   9.999999999966E-001  -1.890185758203E-013   2.046848805453E-013   4.500682342707E-013   4.500472446531E-013   2.762562906097E-013   2.548740224554E-013   2.649575347040E-014   2.289090738803E-013  -6.943404908501E-021   1.662160217988E-023   1.493284236485E-014   1.411758114538E-014   9.619702534877E-014  -5.203044318075E-013   1.808672875223E-012   1.808665478833E-012   3.006736452946E-013   1.221376730349E-024  -1.089420407818E-021   6.382037416621E-015   6.386015736378E-015   1.632134247811E-014  -2.307413028989E-025   1.747424184758E-026   2.706230052654E-015   2.485087260529E-015   1.918966719351E-013   3.551246509557E-013   1.070482544728E-012   1.507395856592E-013   3.412272880599E-013   5.687018642129E-014   9.725940265754E-014  -1.207937754298E-027   3.090192541074E-027   1.890646792853E-016   1.890450396591E-016   2.960317068661E-014   4.793271767445E-014   1.130916660600E-014     # MO Occupations (alpha spin)
<rt_tddft>:      0.00000   1.000000000032E+000   1.000000000012E+000   9.999999999763E-001   9.999999999746E-001   9.999999999746E-001   1.000000000010E+000   9.052803705929E-015   1.000000000004E+000   9.999999999945E-001   9.999999999967E-001   1.000000000008E+000   9.999999999973E-001   9.999999999973E-001   9.999999999966E-001   4.537822456988E-013   8.235603301263E-015   4.500888470589E-013   4.500921631427E-013   1.212364497945E-013   2.548946243161E-013   2.648696624630E-014   1.139772111459E-013  -6.943404946272E-021   1.662251103798E-023   1.493477206054E-014   1.411675706651E-014   4.355831623878E-014   5.489219453842E-013   1.808667537752E-012   1.808663676916E-012  -2.426491141985E-013   1.219225419131E-024  -1.089421213305E-021   6.379135485207E-015   6.388773835804E-015   1.410243867165E-015  -2.307268411197E-025   1.740254706492E-026   2.701505544911E-015   2.489774248287E-015   2.330938708639E-015   8.681614978408E-014   1.071088037306E-012   1.501329364420E-013   7.781224010584E-014   2.386359660483E-013   9.042871853500E-014  -1.231478383146E-027   3.084455978733E-027   1.890661714685E-016   1.890490678959E-016   2.996607844202E-014   1.028055895178E-014   7.467687697385E-015     # MO Occupations (beta spin)
<rt_tddft>:      0.00000   2.217833497410E-011   2.168295728871E-011  -2.842662483999E-003     # Dipole moment [Ne] (alpha spin)
<rt_tddft>:      0.00000   2.209438744763E-011   2.159193650849E-011  -2.065599688394E-003     # Dipole moment [Ne] (beta spin)
<rt_tddft>:      0.00000   4.427272242173E-011   4.327489379721E-011  -4.908262172393E-003     # Dipole moment [Ne] (total spin)
<rt_tddft>:      0.00000  -4.543013913310E-010  -4.539476160234E-010   5.612045280959E+001     # Dipole moment [Ar] (alpha spin)
<rt_tddft>:      0.00000  -4.542630563719E-010  -4.539092374971E-010   5.612048398163E+001     # Dipole moment [Ar] (beta spin)
<rt_tddft>:      0.00000  -9.085644477029E-010  -9.078568535206E-010  -8.786930437310E-003     # Dipole moment [Ar] (total spin)
<rt_tddft>:      0.00000  -3.763332060529E-010  -3.758544078932E-010   5.612497187757E+001     # Dipole moment [dimer] (alpha spin)
<rt_tddft>:      0.00000  -3.766889999392E-010  -3.762177924524E-010   5.612518158949E+001     # Dipole moment [dimer] (beta spin)
<rt_tddft>:      0.00000  -7.530222059921E-010  -7.520722003456E-010   4.297454062083E-004     # Dipole moment [dimer] (total spin)
<rt_tddft>:      0.00000        ### No applied E-field ###
<rt_tddft>:      0.00000        ### Saved restart file ###
 Grid integrated density:      27.000002612291
 Requested integration accuracy:   0.10E-05
 Grid integrated density:      27.000002586828
 Requested integration accuracy:   0.10E-05
 Grid integrated density:      27.000002592962
 Requested integration accuracy:   0.10E-05
 Grid integrated density:      27.000002590344
 Requested integration accuracy:   0.10E-05
 Grid integrated density:      27.000002591510
 Requested integration accuracy:   0.10E-05
 Grid integrated density:      27.000002590956
 Requested integration accuracy:   0.10E-05
 Grid integrated density:      27.000002591236
 Requested integration accuracy:   0.10E-05
 Grid integrated density:      27.000002591093
 Requested integration accuracy:   0.10E-05
 Grid integrated density:      27.000002591168
 Requested integration accuracy:   0.10E-05
 Grid integrated density:      27.000002591129
 Requested integration accuracy:   0.10E-05
 Grid integrated density:      27.000002591149
 Requested integration accuracy:   0.10E-05
 Grid integrated density:      27.000002591139
 Requested integration accuracy:   0.10E-05
 Grid integrated density:      27.000002591144
 Requested integration accuracy:   0.10E-05
 Grid integrated density:      27.000002591141
 Requested integration accuracy:   0.10E-05
<rt_tddft>:      1.00000        ### Checks passed ###
<rt_tddft>:      1.00000        ### Estimated time remaining: 1 day(s) 0 hour(s) ###
<rt_tddft>:      1.00000   2.886421358180E+001     # Enuc
<rt_tddft>:      1.00000  -9.579608068354E+002     # Ecore
<rt_tddft>:      1.00000   3.173512610413E+002     # Ecoul
<rt_tddft>:      1.00000  -4.286811638733E+001     # Exc(1)
<rt_tddft>:      1.00000   0.000000000000E+000     # Exc(2)
<rt_tddft>:      1.00000  -6.546134485997E+002     # Etot
<rt_tddft>:      1.00000   1.844655974284E+000     # Eadded
<rt_tddft>:      1.00000  -5.000892272200E+000     # Charge [Ne] (alpha spin)
<rt_tddft>:      1.00000  -8.999107727781E+000     # Charge [Ar] (alpha spin)
<rt_tddft>:      1.00000  -1.399999999998E+001     # Charge [dimer] (alpha spin)
<rt_tddft>:      1.00000  -4.001180950767E+000     # Charge [Ne] (beta spin)
<rt_tddft>:      1.00000  -8.998819049214E+000     # Charge [Ar] (beta spin)
<rt_tddft>:      1.00000  -1.299999999998E+001     # Charge [dimer] (beta spin)
<rt_tddft>:      1.00000  -9.002073222967E+000     # Charge [Ne] (total spin)
<rt_tddft>:      1.00000  -1.799792677700E+001     # Charge [Ar] (total spin)
<rt_tddft>:      1.00000  -2.699999999996E+001     # Charge [dimer] (total spin)
<rt_tddft>:      1.00000   1.000000000009E+000   9.999995504411E-001   9.999999963342E-001   9.999999074131E-001   9.999999074131E-001   9.999998386817E-001   9.882172970679E-001   9.999521967409E-001   9.736325713322E-001   9.733822461575E-001   9.733822461679E-001   9.996699284611E-001   9.996699284612E-001   9.988534358633E-001   1.101430738412E-003   1.442784811739E-003   6.882108960105E-004   6.882109048769E-004   8.669619335065E-003   1.171811289827E-002   1.171811288859E-002   7.773035396091E-003  -1.295401347682E-021   2.818269572101E-020   7.137749596399E-004   7.137749589875E-004   2.058664002504E-003   7.623358365649E-005   5.292852941654E-006   5.292852950456E-006   1.876903885156E-004   1.546560504713E-019   3.118771195229E-020   1.738102832992E-004   1.738102832767E-004   2.846554377925E-004   6.605727231074E-024   3.889113871049E-023   6.865380820372E-005   6.865380814796E-005   1.317962475684E-003   9.298258543912E-003   1.358006047282E-002   1.358006047184E-002   6.994014122680E-003   8.820888673107E-006   3.154013950554E-007   2.666188731424E-027   5.557604175818E-026   1.770619446729E-009   1.770619449830E-009   2.085522830614E-008   1.312833923683E-004   3.241820036013E-007     # MO Occupations (alpha spin)
<rt_tddft>:      1.00000   1.000000000017E+000   9.999999619499E-001   9.999999963122E-001   9.999999074123E-001   9.999999074122E-001   9.999998386893E-001   4.206472556549E-006   9.999518279558E-001   9.835660142979E-001   9.833826508778E-001   9.833826508887E-001   9.996717588877E-001   9.996717588877E-001   9.989193438557E-001   4.249095138298E-004   1.565084465008E-005   4.459872213528E-004   4.459872269848E-004   3.931962318597E-003   7.420655363338E-003   7.420655357164E-003   4.068480931813E-003  -2.562940367994E-021   2.133964308601E-020   5.473948198507E-004   5.473948194116E-004   8.628855972548E-004   4.970974072975E-005   4.114106661806E-006   4.114106665209E-006   1.045008841916E-004   9.189789483036E-020   1.886245458734E-020   1.072626636054E-004   1.072626635912E-004   2.418522764456E-005   3.859409380364E-024   1.370983093722E-023   4.290525206991E-005   4.290525203600E-005   6.291378003194E-006   4.719421758879E-003   8.377362287472E-003   8.377362286536E-003   3.345260553829E-003   5.490081189817E-006   1.899145145949E-008  -3.380025279338E-027   6.953499577025E-027   1.080871657082E-009   1.080871658533E-009   1.019853228525E-008   3.139371770020E-008   1.061962569039E-009     # MO Occupations (beta spin)
<rt_tddft>:      1.00000   1.818845091908E-011   1.763540445506E-011  -6.276747015359E-003     # Dipole moment [Ne] (alpha spin)
<rt_tddft>:      1.00000   1.907830898409E-011   1.852144502991E-011  -4.342606484446E-003     # Dipole moment [Ne] (beta spin)
<rt_tddft>:      1.00000   3.726675990317E-011   3.615684948497E-011  -1.061935349981E-002     # Dipole moment [Ne] (total spin)
<rt_tddft>:      1.00000  -4.565517680749E-010  -4.562357694048E-010   5.615854259215E+001     # Dipole moment [Ar] (alpha spin)
<rt_tddft>:      1.00000  -4.572454147106E-010  -4.569214527236E-010   5.616075829573E+001     # Dipole moment [Ar] (beta spin)
<rt_tddft>:      1.00000  -9.137971827855E-010  -9.131572221285E-010   6.957716622611E-002     # Dipole moment [Ar] (total spin)
<rt_tddft>:      1.00000  -3.796364404303E-010  -3.791565873766E-010   5.617091275045E+001     # Dipole moment [dimer] (alpha spin)
<rt_tddft>:      1.00000  -3.802918491189E-010  -3.798354614358E-010   5.617061042403E+001     # Dipole moment [dimer] (beta spin)
<rt_tddft>:      1.00000  -7.599282895492E-010  -7.589920488124E-010   9.179945282268E-002     # Dipole moment [dimer] (total spin)
<rt_tddft>:      1.00000        ### No applied E-field ###
<rt_tddft>:      1.00000        ### Saved restart file ###
 Grid integrated density:      27.000002689330
 Requested integration accuracy:   0.10E-05
 Grid integrated density:      27.000002712448
 Requested integration accuracy:   0.10E-05
 Grid integrated density:      27.000002706057
 Requested integration accuracy:   0.10E-05
 Grid integrated density:      27.000002710090
 Requested integration accuracy:   0.10E-05
 Grid integrated density:      27.000002708089
 Requested integration accuracy:   0.10E-05
 Grid integrated density:      27.000002709145
 Requested integration accuracy:   0.10E-05
 Grid integrated density:      27.000002708606
 Requested integration accuracy:   0.10E-05
 Grid integrated density:      27.000002708884
 Requested integration accuracy:   0.10E-05
 Grid integrated density:      27.000002708742
 Requested integration accuracy:   0.10E-05
 Grid integrated density:      27.000002708815
 Requested integration accuracy:   0.10E-05
 Grid integrated density:      27.000002708777
 Requested integration accuracy:   0.10E-05
 Grid integrated density:      27.000002708797
 Requested integration accuracy:   0.10E-05
 Grid integrated density:      27.000002708787
 Requested integration accuracy:   0.10E-05
 Grid integrated density:      27.000002708792
 Requested integration accuracy:   0.10E-05
<rt_tddft>:      2.00000   2.886421358180E+001     # Enuc
<rt_tddft>:      2.00000  -9.564497662072E+002     # Ecore
<rt_tddft>:      2.00000   3.155873105046E+002     # Ecoul
<rt_tddft>:      2.00000  -4.261509593564E+001     # Exc(1)
<rt_tddft>:      2.00000   0.000000000000E+000     # Exc(2)
<rt_tddft>:      2.00000  -6.546133380564E+002     # Etot
<rt_tddft>:      2.00000   1.844766517539E+000     # Eadded
<rt_tddft>:      2.00000  -5.000211830016E+000     # Charge [Ne] (alpha spin)
<rt_tddft>:      2.00000  -8.999788169964E+000     # Charge [Ar] (alpha spin)
<rt_tddft>:      2.00000  -1.399999999998E+001     # Charge [dimer] (alpha spin)
<rt_tddft>:      2.00000  -3.999126518880E+000     # Charge [Ne] (beta spin)
<rt_tddft>:      2.00000  -9.000873481100E+000     # Charge [Ar] (beta spin)
<rt_tddft>:      2.00000  -1.299999999998E+001     # Charge [dimer] (beta spin)
<rt_tddft>:      2.00000  -8.999338348896E+000     # Charge [Ne] (total spin)
<rt_tddft>:      2.00000  -1.800066165106E+001     # Charge [Ar] (total spin)
<rt_tddft>:      2.00000  -2.699999999996E+001     # Charge [dimer] (total spin)
<rt_tddft>:      2.00000   1.000000000020E+000   9.999992512792E-001   9.999999946646E-001   9.999999509785E-001   9.999999509785E-001   9.999999102958E-001   9.932705003682E-001   9.998765520356E-001   9.637838792651E-001   9.636819125917E-001   9.636819126019E-001   9.991405375264E-001   9.991405375266E-001   9.967963443429E-001   2.313237061337E-003   1.680220176131E-003   1.836981139898E-003   1.836981162218E-003   1.767086242449E-002   2.877800732985E-002   2.877800730540E-002   1.633485662324E-002   6.048547854179E-021   6.337051058683E-020   1.631299149649E-003   1.631299148224E-003   3.043781358529E-003   1.664731437524E-004   1.069771609795E-005   1.069771610393E-005   2.716118656642E-004   9.936139867873E-020   2.037557750628E-020   1.152298055688E-004   1.152298055452E-004   4.868595497630E-005   2.792877419048E-024   1.053073345512E-023   3.484944507017E-005   3.484944505300E-005   9.504924286164E-005   3.017658302115E-003   4.770531496935E-003   4.770531496142E-003   1.581981716601E-003   9.868848705691E-007   3.007236356868E-007   1.512156224510E-026   1.134279573270E-025   2.794724584566E-009   2.794724593411E-009   4.102017763921E-008   4.702272684496E-005   7.985279700460E-007     # MO Occupations (alpha spin)
<rt_tddft>:      2.00000   1.000000000028E+000   9.999997886186E-001   9.999999946363E-001   9.999999509703E-001   9.999999509702E-001   9.999999103011E-001   8.273969125368E-006   9.998757190603E-001   9.771693484746E-001   9.770376828389E-001   9.770376828496E-001   9.991438762502E-001   9.991438762505E-001   9.969117501076E-001   1.304339872480E-003   5.614345963090E-005   1.159621967091E-003   1.159621980835E-003   9.504839811584E-003   1.775322565833E-002   1.775322564326E-002   9.772511482272E-003   3.265876058517E-021   4.948799675347E-020   1.264030221100E-003   1.264030220094E-003   1.827992476738E-003   1.522775593254E-004   9.139850685991E-006   9.139850682511E-006   1.843551829217E-004   6.690663711264E-020   1.338399339582E-020   7.755855630197E-005   7.755855628147E-005   2.807282202341E-005   2.075719903944E-024   9.128812617379E-024   2.470721933655E-005   2.470721931558E-005   5.234047650568E-006   2.104415026951E-003   3.530204583476E-003   3.530204582447E-003   1.094467743070E-003   3.964014199513E-007   1.210629741327E-008  -2.008588308898E-027   1.557100920372E-026   1.857880830714E-009   1.857880831584E-009   1.617818434142E-008   9.102638692483E-008   4.963288051671E-008     # MO Occupations (beta spin)
<rt_tddft>:      2.00000   3.916315148002E-012   3.248745070740E-012   2.909073967267E-003     # Dipole moment [Ne] (alpha spin)
<rt_tddft>:      2.00000   6.514703803284E-012   5.853531758998E-012   7.776358630607E-003     # Dipole moment [Ne] (beta spin)
<rt_tddft>:      2.00000   1.043101895129E-011   9.102276829738E-012   1.068543259787E-002     # Dipole moment [Ne] (total spin)
<rt_tddft>:      2.00000  -4.921516306089E-010  -4.918271236135E-010   5.624687151697E+001     # Dipole moment [Ar] (alpha spin)
<rt_tddft>:      2.00000  -4.902514906894E-010  -4.899165412781E-010   5.625692615882E+001     # Dipole moment [Ar] (beta spin)
<rt_tddft>:      2.00000  -9.824031212983E-010  -9.817436648916E-010   2.540739541442E-001     # Dipole moment [Ar] (total spin)
<rt_tddft>:      2.00000  -4.005444685698E-010  -4.003263189643E-010   5.626868027701E+001     # Dipole moment [dimer] (alpha spin)
<rt_tddft>:      2.00000  -4.011983079174E-010  -4.009411388365E-010   5.626501349589E+001     # Dipole moment [dimer] (beta spin)
<rt_tddft>:      2.00000  -8.017427764872E-010  -8.012674578008E-010   2.839700512483E-001     # Dipole moment [dimer] (total spin)
<rt_tddft>:      2.00000        ### No applied E-field ###
 Grid integrated density:      27.000002792078
 Requested integration accuracy:   0.10E-05
 Grid integrated density:      27.000002795307
 Requested integration accuracy:   0.10E-05
 Grid integrated density:      27.000002799120
 Requested integration accuracy:   0.10E-05
 Grid integrated density:      27.000002796615
 Requested integration accuracy:   0.10E-05
 Grid integrated density:      27.000002798190
 Requested integration accuracy:   0.10E-05
 Grid integrated density:      27.000002797286
 Requested integration accuracy:   0.10E-05
 Grid integrated density:      27.000002797798
 Requested integration accuracy:   0.10E-05
 Grid integrated density:      27.000002797513
 Requested integration accuracy:   0.10E-05
 Grid integrated density:      27.000002797671
 Requested integration accuracy:   0.10E-05
 Grid integrated density:      27.000002797584
 Requested integration accuracy:   0.10E-05
 Grid integrated density:      27.000002797632
 Requested integration accuracy:   0.10E-05
 Grid integrated density:      27.000002797605
 Requested integration accuracy:   0.10E-05
 Grid integrated density:      27.000002797621
 Requested integration accuracy:   0.10E-05
<rt_tddft>:      3.00000   2.886421358180E+001     # Enuc
<rt_tddft>:      3.00000  -9.571655899318E+002     # Ecore
<rt_tddft>:      3.00000   3.164130395796E+002     # Ecoul
<rt_tddft>:      3.00000  -4.272495379548E+001     # Exc(1)
<rt_tddft>:      3.00000   0.000000000000E+000     # Exc(2)
<rt_tddft>:      3.00000  -6.546132905659E+002     # Etot
<rt_tddft>:      3.00000   1.844814008055E+000     # Eadded
<rt_tddft>:      3.00000  -5.007841941132E+000     # Charge [Ne] (alpha spin)
<rt_tddft>:      3.00000  -8.992158058847E+000     # Charge [Ar] (alpha spin)
<rt_tddft>:      3.00000  -1.399999999998E+001     # Charge [dimer] (alpha spin)
<rt_tddft>:      3.00000  -4.006176393490E+000     # Charge [Ne] (beta spin)
<rt_tddft>:      3.00000  -8.993823606489E+000     # Charge [Ar] (beta spin)
<rt_tddft>:      3.00000  -1.299999999998E+001     # Charge [dimer] (beta spin)
<rt_tddft>:      3.00000  -9.014018334621E+000     # Charge [Ne] (total spin)
<rt_tddft>:      3.00000  -1.798598166534E+001     # Charge [Ar] (total spin)
<rt_tddft>:      3.00000  -2.699999999996E+001     # Charge [dimer] (total spin)
<rt_tddft>:      3.00000   1.000000000014E+000   9.999994939239E-001   9.999999951795E-001   9.999999456020E-001   9.999999456020E-001   9.999998981713E-001   9.952041003635E-001   9.998685191883E-001   9.617909981008E-001   9.617002800856E-001   9.617002800959E-001   9.988479744405E-001   9.988479744410E-001   9.950252948552E-001   2.709444513810E-003   2.203531278325E-004   2.366333971485E-003   2.366333995902E-003   1.598743279220E-002   2.848227384483E-002   2.848227381751E-002   1.494104494986E-002   5.094629912063E-021   5.810228097423E-020   1.461828716318E-003   1.461828715235E-003   2.165043671059E-003   2.273625666862E-004   7.430864863187E-006   7.430864846143E-006   1.146746289362E-004   6.621389355487E-020   1.159411822055E-020   6.908770324088E-005   6.908770326109E-005   3.149879756428E-004   2.263191104214E-024   2.362599937961E-023   3.156799571381E-005   3.156799568893E-005   1.257363318733E-003   5.196459038297E-003   7.033266292211E-003   7.033266291657E-003   4.763030743608E-003   2.451224675103E-006   7.906704224003E-008   2.789934707588E-026   1.943637177653E-025   1.045758554015E-008   1.045758554239E-008   2.155919877769E-007   2.111934990146E-004   5.635184703312E-007     # MO Occupations (alpha spin)
<rt_tddft>:      3.00000   1.000000000021E+000   9.999998121076E-001   9.999999951536E-001   9.999999455917E-001   9.999999455917E-001   9.999998981732E-001   1.458246527342E-005   9.998686238623E-001   9.741525411874E-001   9.741311714289E-001   9.741311714394E-001   9.988496127124E-001   9.988496127129E-001   9.951168656485E-001   2.266188023642E-003   1.393513483221E-004   1.648227984537E-003   1.648228000915E-003   1.096729422097E-002   1.975138244098E-002   1.975138242138E-002   1.094525799881E-002   3.838038290462E-021   5.193843946612E-020   1.289515817345E-003   1.289515816361E-003   1.554251321128E-003   2.068141153201E-004   7.523048452347E-006   7.523048433917E-006   9.074387646534E-005   4.376731472049E-020   8.150472586241E-021   4.986857675025E-005   4.986857674723E-005   4.564448712101E-005   1.204602840590E-024   4.285178739455E-024   1.872131739403E-005   1.872131738590E-005   2.176111856063E-006   2.287807584720E-003   4.254024066481E-003   4.254024066186E-003   2.340314391885E-003   1.632960756141E-006   1.944931854408E-008   2.271324262663E-027   3.695051912136E-026   6.989321122361E-009   6.989321139200E-009   2.396473817076E-008   1.077489322134E-007   5.380146530885E-008     # MO Occupations (beta spin)
<rt_tddft>:      3.00000  -1.443454049113E-011  -1.290224757079E-011  -1.727096215784E-002     # Dipole moment [Ne] (alpha spin)
<rt_tddft>:      3.00000  -1.095867904944E-011  -9.855005981928E-012  -6.304463900781E-003     # Dipole moment [Ne] (beta spin)
<rt_tddft>:      3.00000  -2.539321954057E-011  -2.275725355272E-011  -2.357542605862E-002     # Dipole moment [Ne] (total spin)
<rt_tddft>:      3.00000  -5.024632693618E-010  -5.019362261421E-010   5.635142098560E+001     # Dipole moment [Ar] (alpha spin)
<rt_tddft>:      3.00000  -4.996963874529E-010  -4.992197516947E-010   5.636438893477E+001     # Dipole moment [Ar] (beta spin)
<rt_tddft>:      3.00000  -1.002159656815E-009  -1.001155977837E-009   4.660861987182E-001     # Dipole moment [Ar] (total spin)
<rt_tddft>:      3.00000  -3.861568368021E-010  -3.854880271347E-010   5.633519566213E+001     # Dipole moment [dimer] (alpha spin)
<rt_tddft>:      3.00000  -3.904576503576E-010  -3.899974864693E-010   5.633758924561E+001     # Dipole moment [dimer] (beta spin)
<rt_tddft>:      3.00000  -7.766144871597E-010  -7.754855136039E-010   4.230611860894E-001     # Dipole moment [dimer] (total spin)
<rt_tddft>:      3.00000        ### No applied E-field ###
 Grid integrated density:      27.000002818699
 Requested integration accuracy:   0.10E-05
 Grid integrated density:      27.000002831849
 Requested integration accuracy:   0.10E-05
 Grid integrated density:      27.000002829466
 Requested integration accuracy:   0.10E-05
 Grid integrated density:      27.000002830289
 Requested integration accuracy:   0.10E-05
 Grid integrated density:      27.000002830038
 Requested integration accuracy:   0.10E-05
 Grid integrated density:      27.000002830129
 Requested integration accuracy:   0.10E-05
 Grid integrated density:      27.000002830093
 Requested integration accuracy:   0.10E-05
 Grid integrated density:      27.000002830109
 Requested integration accuracy:   0.10E-05
<rt_tddft>:      4.00000   2.886421358180E+001     # Enuc
<rt_tddft>:      4.00000  -9.575808369029E+002     # Ecore
<rt_tddft>:      4.00000   3.168839568527E+002     # Ecoul
<rt_tddft>:      4.00000  -4.278073835109E+001     # Exc(1)
<rt_tddft>:      4.00000   0.000000000000E+000     # Exc(2)
<rt_tddft>:      4.00000  -6.546134048195E+002     # Etot
<rt_tddft>:      4.00000   1.844699754426E+000     # Eadded
<rt_tddft>:      4.00000  -5.009744655117E+000     # Charge [Ne] (alpha spin)
<rt_tddft>:      4.00000  -8.990255344861E+000     # Charge [Ar] (alpha spin)
<rt_tddft>:      4.00000  -1.399999999998E+001     # Charge [dimer] (alpha spin)
<rt_tddft>:      4.00000  -4.014061605353E+000     # Charge [Ne] (beta spin)
<rt_tddft>:      4.00000  -8.985938394626E+000     # Charge [Ar] (beta spin)
<rt_tddft>:      4.00000  -1.299999999998E+001     # Charge [dimer] (beta spin)
<rt_tddft>:      4.00000  -9.023806260470E+000     # Charge [Ne] (total spin)
<rt_tddft>:      4.00000  -1.797619373949E+001     # Charge [Ar] (total spin)
<rt_tddft>:      4.00000  -2.699999999996E+001     # Charge [dimer] (total spin)
<rt_tddft>:      4.00000   1.000000000017E+000   9.999998281300E-001   9.999999913401E-001   9.999999683392E-001   9.999999683392E-001   9.999999070521E-001   9.922003037126E-001   9.998923959871E-001   9.752303803096E-001   9.734701660548E-001   9.734701660655E-001   9.988078772784E-001   9.988078772790E-001   9.938553556988E-001   3.508665186559E-003   1.413180410166E-003   1.703896260385E-003   1.703896272580E-003   9.432291645303E-003   1.235147072431E-002   1.235147070946E-002   8.819473039894E-003   8.822349669469E-022   3.816345870759E-020   9.108808717100E-004   9.108808714437E-004   1.398350928526E-003   1.783097487541E-004   8.345713854008E-006   8.345713879860E-006   9.319587896993E-005   2.462660350409E-019   5.135730079911E-020   2.824370142337E-004   2.824370141784E-004   2.149478435098E-004   8.886523341606E-024   2.972274609799E-023   8.855715657970E-005   8.855715652549E-005   5.099693077906E-004   8.023553192936E-003   1.237638275433E-002   1.237638275352E-002   5.109630199215E-003   2.285691756065E-006   7.534120539490E-008   1.085153949584E-026   3.118796687728E-025   1.780577799540E-008   1.780577801457E-008   2.481877026264E-007   1.168768842367E-004   7.842892234886E-007     # MO Occupations (alpha spin)
<rt_tddft>:      4.00000   1.000000000024E+000   9.999999135601E-001   9.999999913193E-001   9.999999683253E-001   9.999999683253E-001   9.999999070237E-001   1.715539952297E-005   9.998952744003E-001   9.796372171072E-001   9.785812697657E-001   9.785812697751E-001   9.988066524102E-001   9.988066524107E-001   9.939161283975E-001   2.925877704975E-003   2.349076882954E-004   1.455818301029E-003   1.455818311241E-003   6.871375897745E-003   1.162762341187E-002   1.162762339615E-002   7.288531591121E-003   1.251719977993E-021   3.949098408036E-020   9.407662025031E-004   9.407662020272E-004   9.112921989245E-004   1.654496389001E-004   5.990970882096E-006   5.990970885021E-006   6.177250326126E-005   1.578025423104E-019   3.286777017623E-020   1.825462201502E-004   1.825462201055E-004   7.456284348325E-005   6.386097545996E-024   1.705617717551E-023   5.679869930589E-005   5.679869927330E-005   5.300531355513E-006   4.922866879313E-003   8.342555106170E-003   8.342555105414E-003   3.070781508405E-003   1.471019078831E-006   2.709469981296E-008  -1.280127739245E-028   5.054928647078E-026   1.056285155041E-008   1.056285157146E-008   6.130545718830E-008   1.186585914626E-007   1.572765445863E-008     # MO Occupations (beta spin)
<rt_tddft>:      4.00000   5.839677944737E-013   1.754771614636E-012  -2.831693876306E-004     # Dipole moment [Ne] (alpha spin)
<rt_tddft>:      4.00000  -6.504111835119E-012  -4.716443395844E-012  -1.106938785848E-002     # Dipole moment [Ne] (beta spin)
<rt_tddft>:      4.00000  -5.920144040645E-012  -2.961671781208E-012  -1.135255724611E-002     # Dipole moment [Ne] (total spin)
<rt_tddft>:      4.00000  -4.306083621947E-010  -4.298824120743E-010   5.641368890906E+001     # Dipole moment [Ar] (alpha spin)
<rt_tddft>:      4.00000  -4.374311555582E-010  -4.368608076561E-010   5.642463793298E+001     # Dipole moment [Ar] (beta spin)
<rt_tddft>:      4.00000  -8.680395177530E-010  -8.667432197304E-010   5.886031203863E-001     # Dipole moment [Ar] (total spin)
<rt_tddft>:      4.00000  -3.308646044042E-010  -3.300084578878E-010   5.635904033310E+001     # Dipole moment [dimer] (alpha spin)
<rt_tddft>:      4.00000  -3.443853157747E-010  -3.432934338276E-010   5.635597276882E+001     # Dipole moment [dimer] (beta spin)
<rt_tddft>:      4.00000  -6.752499201789E-010  -6.733018917155E-010   4.652893802674E-001     # Dipole moment [dimer] (total spin)
<rt_tddft>:      4.00000        ### No applied E-field ###
 Grid integrated density:      27.000002715390
 Requested integration accuracy:   0.10E-05
 Grid integrated density:      27.000002723933
 Requested integration accuracy:   0.10E-05
 Grid integrated density:      27.000002717720
 Requested integration accuracy:   0.10E-05
 Grid integrated density:      27.000002720515
 Requested integration accuracy:   0.10E-05
 Grid integrated density:      27.000002719080
 Requested integration accuracy:   0.10E-05
 Grid integrated density:      27.000002719851
 Requested integration accuracy:   0.10E-05
 Grid integrated density:      27.000002719433
 Requested integration accuracy:   0.10E-05
 Grid integrated density:      27.000002719663
 Requested integration accuracy:   0.10E-05
 Grid integrated density:      27.000002719536
 Requested integration accuracy:   0.10E-05
 Grid integrated density:      27.000002719606
 Requested integration accuracy:   0.10E-05
 Grid integrated density:      27.000002719567
 Requested integration accuracy:   0.10E-05
 Grid integrated density:      27.000002719589
 Requested integration accuracy:   0.10E-05
 Grid integrated density:      27.000002719577
 Requested integration accuracy:   0.10E-05
<rt_tddft>:      5.00000   2.886421358180E+001     # Enuc
<rt_tddft>:      5.00000  -9.546750289234E+002     # Ecore
<rt_tddft>:      5.00000   3.135456266606E+002     # Ecoul
<rt_tddft>:      5.00000  -4.234805521175E+001     # Exc(1)
<rt_tddft>:      5.00000   0.000000000000E+000     # Exc(2)
<rt_tddft>:      5.00000  -6.546132438928E+002     # Etot
<rt_tddft>:      5.00000   1.844860681200E+000     # Eadded
<rt_tddft>:      5.00000  -5.017633298465E+000     # Charge [Ne] (alpha spin)
<rt_tddft>:      5.00000  -8.982366701512E+000     # Charge [Ar] (alpha spin)
<rt_tddft>:      5.00000  -1.399999999998E+001     # Charge [dimer] (alpha spin)
<rt_tddft>:      5.00000  -4.017365119797E+000     # Charge [Ne] (beta spin)
<rt_tddft>:      5.00000  -8.982634880180E+000     # Charge [Ar] (beta spin)
<rt_tddft>:      5.00000  -1.299999999998E+001     # Charge [dimer] (beta spin)
<rt_tddft>:      5.00000  -9.034998418261E+000     # Charge [Ne] (total spin)
<rt_tddft>:      5.00000  -1.796500158169E+001     # Charge [Ar] (total spin)
<rt_tddft>:      5.00000  -2.699999999995E+001     # Charge [dimer] (total spin)
<rt_tddft>:      5.00000   1.000000000008E+000   9.999996919105E-001   9.999999891516E-001   9.999999636030E-001   9.999999636030E-001   9.999999127871E-001   9.890481200004E-001   9.999007875739E-001   9.971088368474E-001   9.988929020947E-001   9.988929021056E-001   9.989938339228E-001   9.989938339233E-001   9.929630649950E-001   3.896387352697E-003   2.360565498615E-003   3.705975179099E-004   3.705975167032E-004   1.705532586396E-003   3.135180638274E-004   3.135180640394E-004   3.723845282768E-003  -2.439473749355E-022   3.278210761321E-020   8.260538214175E-004   8.260538212424E-004   1.201002804772E-003   1.009943975593E-004   9.814775708887E-006   9.814775766053E-006   1.595589881385E-004   5.820905288018E-020   7.978303663768E-021   4.769605987585E-005   4.769605984701E-005   6.273134689375E-004   1.192594711544E-025   2.597566106511E-023   2.321376142796E-006   2.321376143774E-006   2.083736798911E-003   2.083721117265E-003   5.432912966991E-004   5.432912960804E-004   2.561255660793E-003   4.502743335555E-006   2.050061926610E-007   9.545724840491E-027   4.162136941732E-025   7.440361116040E-009   7.440361134560E-009   1.010443370591E-007   4.706333792956E-004   2.406182812055E-007     # MO Occupations (alpha spin)
<rt_tddft>:      5.00000   1.000000000016E+000   9.999998266196E-001   9.999999891306E-001   9.999999635912E-001   9.999999635912E-001   9.999999128126E-001   1.287279223085E-005   9.999026741080E-001   9.976471338752E-001   9.982811251730E-001   9.982811251837E-001   9.989956186879E-001   9.989956186882E-001   9.931484636416E-001   3.145116274401E-003   3.245166494900E-004   5.524148299465E-004   5.524148297375E-004   9.867045050662E-004   1.334021564953E-003   1.334021561727E-003   3.001176115796E-003  -8.005006010164E-022   3.012759859814E-020   7.269299360240E-004   7.269299356870E-004   8.218732106289E-004   7.213082844811E-005   7.951268999186E-006   7.951269022407E-006   1.145220737664E-004   4.756343848725E-020   8.621383665801E-021   5.112249803658E-005   5.112249799985E-005   7.179818946059E-005   6.125971871650E-025   4.333427096137E-024   4.626907823009E-006   4.626907818407E-006   1.823294234686E-005   1.710013360809E-005   4.621889554048E-005   4.621889472054E-005   7.136169368283E-004   2.094151295658E-006   1.994220956077E-008   7.141437397388E-027   6.704267608099E-026   6.620844939508E-009   6.620844953912E-009   4.749801359017E-008   1.707517298784E-007   6.823560857187E-009     # MO Occupations (beta spin)
<rt_tddft>:      5.00000   2.893050983188E-011   2.634699580807E-011  -1.515392930792E-002     # Dipole moment [Ne] (alpha spin)
<rt_tddft>:      5.00000   1.413221842737E-011   1.287987437943E-011  -1.281103742234E-002     # Dipole moment [Ne] (beta spin)
<rt_tddft>:      5.00000   4.306272825926E-011   3.922687018750E-011  -2.796496673026E-002     # Dipole moment [Ne] (total spin)
<rt_tddft>:      5.00000  -3.416373839870E-010  -3.408654523945E-010   5.640843831320E+001     # Dipole moment [Ar] (alpha spin)
<rt_tddft>:      5.00000  -3.641435375845E-010  -3.635159289439E-010   5.641663842714E+001     # Dipole moment [Ar] (beta spin)
<rt_tddft>:      5.00000  -7.057809215715E-010  -7.043813813384E-010   5.753530186965E-001     # Dipole moment [Ar] (total spin)
<rt_tddft>:      5.00000  -2.868770027343E-010  -2.871049668434E-010   5.630114761178E+001     # Dipole moment [dimer] (alpha spin)
<rt_tddft>:      5.00000  -3.028616072031E-010  -3.028851515297E-010   5.631395517691E+001     # Dipole moment [dimer] (beta spin)
<rt_tddft>:      5.00000  -5.897386099375E-010  -5.899901183731E-010   3.653790670418E-001     # Dipole moment [dimer] (total spin)
<rt_tddft>:      5.00000        ### No applied E-field ###
 Grid integrated density:      27.000002621918
 Requested integration accuracy:   0.10E-05
 Grid integrated density:      27.000002610171
 Requested integration accuracy:   0.10E-05
 Grid integrated density:      27.000002614065
 Requested integration accuracy:   0.10E-05
 Grid integrated density:      27.000002612022
 Requested integration accuracy:   0.10E-05
 Grid integrated density:      27.000002613121
 Requested integration accuracy:   0.10E-05
 Grid integrated density:      27.000002612567
 Requested integration accuracy:   0.10E-05
 Grid integrated density:      27.000002612861
 Requested integration accuracy:   0.10E-05
 Grid integrated density:      27.000002612709
 Requested integration accuracy:   0.10E-05
 Grid integrated density:      27.000002612788
 Requested integration accuracy:   0.10E-05
 Grid integrated density:      27.000002612747
 Requested integration accuracy:   0.10E-05
 Grid integrated density:      27.000002612769
 Requested integration accuracy:   0.10E-05
 Grid integrated density:      27.000002612758
 Requested integration accuracy:   0.10E-05
 Grid integrated density:      27.000002612763
 Requested integration accuracy:   0.10E-05
 Grid integrated density:      27.000002612760
 Requested integration accuracy:   0.10E-05
<rt_tddft>:      6.00000   2.886421358180E+001     # Enuc
<rt_tddft>:      6.00000  -9.576235257698E+002     # Ecore
<rt_tddft>:      6.00000   3.169523049197E+002     # Ecoul
<rt_tddft>:      6.00000  -4.280645701760E+001     # Exc(1)
<rt_tddft>:      6.00000   0.000000000000E+000     # Exc(2)
<rt_tddft>:      6.00000  -6.546134642859E+002     # Etot
<rt_tddft>:      6.00000   1.844640288042E+000     # Eadded
<rt_tddft>:      6.00000  -5.014287517428E+000     # Charge [Ne] (alpha spin)
<rt_tddft>:      6.00000  -8.985712482547E+000     # Charge [Ar] (alpha spin)
<rt_tddft>:      6.00000  -1.399999999998E+001     # Charge [dimer] (alpha spin)
<rt_tddft>:      6.00000  -4.017627997222E+000     # Charge [Ne] (beta spin)
<rt_tddft>:      6.00000  -8.982372002754E+000     # Charge [Ar] (beta spin)
<rt_tddft>:      6.00000  -1.299999999998E+001     # Charge [dimer] (beta spin)
<rt_tddft>:      6.00000  -9.031915514651E+000     # Charge [Ne] (total spin)
<rt_tddft>:      6.00000  -1.796808448530E+001     # Charge [Ar] (total spin)
<rt_tddft>:      6.00000  -2.699999999995E+001     # Charge [dimer] (total spin)
<rt_tddft>:      6.00000   1.000000000007E+000   9.999991051643E-001   9.999999902428E-001   9.999999101354E-001   9.999999101354E-001   9.999998718112E-001   9.943788209673E-001   9.999090048369E-001   9.708879782692E-001   9.726875662090E-001   9.726875662194E-001   9.993956721565E-001   9.993956721569E-001   9.920562582255E-001   3.945229467283E-003   7.188723903867E-004   5.619354151902E-004   5.619354229979E-004   5.576563814160E-003   1.167776106588E-002   1.167776106029E-002   1.090921992818E-002  -1.611968524295E-021   2.778405661211E-020   6.526906063177E-004   6.526906054871E-004   1.902897177654E-003   2.764495915548E-005   7.448433381573E-006   7.448433400385E-006   4.066730252740E-005   3.137203823033E-019   6.562812216961E-020   3.593500276484E-004   3.593500275885E-004   4.833305672838E-004   3.539237861180E-024   3.141717299864E-023   1.024602280805E-004   1.024602280355E-004   1.224103628448E-003   9.785042448501E-003   1.455512394088E-002   1.455512394109E-002   8.036451503647E-003   9.492602264655E-006   4.490103444430E-007   2.739052700036E-026   5.493160380797E-025   8.175282080480E-008   8.175282079282E-008   7.987270965049E-007   1.067233401610E-004   1.483630119537E-006     # MO Occupations (alpha spin)
<rt_tddft>:      6.00000   1.000000000014E+000   9.999997524305E-001   9.999999902164E-001   9.999999100745E-001   9.999999100745E-001   9.999998715112E-001   1.942633137117E-005   9.999089665718E-001   9.878790374206E-001   9.895240057747E-001   9.895240057871E-001   9.994100891942E-001   9.994100891942E-001   9.926185804058E-001   3.526783157904E-003   5.118421695136E-004   1.226238695468E-004   1.226238694553E-004   1.220496475301E-003   3.126078989474E-003   3.126078991348E-003   5.378061548653E-003  -2.897442286734E-021   2.073557986132E-020   4.843245666479E-004   4.843245659581E-004   9.826000022319E-004   9.072529323092E-006   6.954674414444E-006   6.954674405767E-006   3.209957797803E-005   1.233134009593E-019   2.615779063202E-020   1.467374095104E-004   1.467374094623E-004   4.036385857299E-005   5.617919733885E-025   7.027346595986E-024   4.890994353069E-005   4.890994352154E-005   2.256636861350E-005   4.162413207091E-003   7.130328596863E-003   7.130328597982E-003   3.683283211203E-003   4.423345539570E-006   6.347957101805E-008   2.474284598153E-026   1.151627312554E-025   3.687679456410E-008   3.687679460517E-008   1.112786618613E-007   1.868314757175E-007   8.077833694888E-009     # MO Occupations (beta spin)
<rt_tddft>:      6.00000   6.302179490361E-011   5.940965143939E-011   5.189164420360E-003     # Dipole moment [Ne] (alpha spin)
<rt_tddft>:      6.00000   5.190236873441E-011   4.886532087382E-011  -7.572062778434E-003     # Dipole moment [Ne] (beta spin)
<rt_tddft>:      6.00000   1.149241636380E-010   1.082749723132E-010  -2.382898358074E-003     # Dipole moment [Ne] (total spin)
<rt_tddft>:      6.00000  -3.675527856168E-010  -3.664334735961E-010   5.636597748672E+001     # Dipole moment [Ar] (alpha spin)
<rt_tddft>:      6.00000  -3.929078220776E-010  -3.918810598698E-010   5.637295304382E+001     # Dipole moment [Ar] (beta spin)
<rt_tddft>:      6.00000  -7.604606076943E-010  -7.583145334659E-010   4.892068088890E-001     # Dipole moment [Ar] (total spin)
<rt_tddft>:      6.00000  -3.289384128082E-010  -3.288752981321E-010   5.626276100737E+001     # Dipole moment [dimer] (alpha spin)
<rt_tddft>:      6.00000  -3.468779210803E-010  -3.468528113674E-010   5.625855909712E+001     # Dipole moment [dimer] (beta spin)
<rt_tddft>:      6.00000  -6.758163338885E-010  -6.757281094995E-010   2.715963828350E-001     # Dipole moment [dimer] (total spin)
<rt_tddft>:      6.00000        ### No applied E-field ###
 Grid integrated density:      27.000002544424
 Requested integration accuracy:   0.10E-05
 Grid integrated density:      27.000002543880
 Requested integration accuracy:   0.10E-05
 Grid integrated density:      27.000002540827
 Requested integration accuracy:   0.10E-05
 Grid integrated density:      27.000002543524
 Requested integration accuracy:   0.10E-05
 Grid integrated density:      27.000002541919
 Requested integration accuracy:   0.10E-05
 Grid integrated density:      27.000002542828
 Requested integration accuracy:   0.10E-05
 Grid integrated density:      27.000002542343
 Requested integration accuracy:   0.10E-05
 Grid integrated density:      27.000002542600
 Requested integration accuracy:   0.10E-05
 Grid integrated density:      27.000002542465
 Requested integration accuracy:   0.10E-05
 Grid integrated density:      27.000002542535
 Requested integration accuracy:   0.10E-05
 Grid integrated density:      27.000002542499
 Requested integration accuracy:   0.10E-05
 Grid integrated density:      27.000002542518
 Requested integration accuracy:   0.10E-05
 Grid integrated density:      27.000002542508
 Requested integration accuracy:   0.10E-05
 Grid integrated density:      27.000002542513
 Requested integration accuracy:   0.10E-05
<rt_tddft>:      7.00000   2.886421358180E+001     # Enuc
<rt_tddft>:      7.00000  -9.560474922789E+002     # Ecore
<rt_tddft>:      7.00000   3.151313200230E+002     # Ecoul
<rt_tddft>:      7.00000  -4.256134483035E+001     # Exc(1)
<rt_tddft>:      7.00000   0.000000000000E+000     # Exc(2)
<rt_tddft>:      7.00000  -6.546133035044E+002     # Etot
<rt_tddft>:      7.00000   1.844801069547E+000     # Eadded
<rt_tddft>:      7.00000  -5.010277301573E+000     # Charge [Ne] (alpha spin)
<rt_tddft>:      7.00000  -8.989722698402E+000     # Charge [Ar] (alpha spin)
<rt_tddft>:      7.00000  -1.399999999997E+001     # Charge [dimer] (alpha spin)
<rt_tddft>:      7.00000  -4.012457811791E+000     # Charge [Ne] (beta spin)
<rt_tddft>:      7.00000  -8.987542188184E+000     # Charge [Ar] (beta spin)
<rt_tddft>:      7.00000  -1.299999999997E+001     # Charge [dimer] (beta spin)
<rt_tddft>:      7.00000  -9.022735113364E+000     # Charge [Ne] (total spin)
<rt_tddft>:      7.00000  -1.797726488659E+001     # Charge [Ar] (total spin)
<rt_tddft>:      7.00000  -2.699999999995E+001     # Charge [dimer] (total spin)
<rt_tddft>:      7.00000   1.000000000001E+000   9.999989423082E-001   9.999999868966E-001   9.999998620102E-001   9.999998620101E-001   9.999997006093E-001   9.931111127978E-001   9.999148666953E-001   9.633721582735E-001   9.636995121096E-001   9.636995121204E-001   9.996304406294E-001   9.996304406294E-001   9.912669856163E-001   5.978061961887E-003   2.443189788531E-003   2.482792662787E-003   2.482792691614E-003   1.808069115453E-002   3.062146897115E-002   3.062146894425E-002   1.943643603772E-002  -3.594545683252E-021   1.903566050026E-020   4.185416808952E-004   4.185416800455E-004   1.276428040848E-003   5.400008010335E-005   2.252460302544E-005   2.252460309737E-005   1.563084449393E-004   3.058206158392E-019   6.134421352117E-020   3.341359316619E-004   3.341359315441E-004   7.190684971402E-004   2.540765980302E-024   2.308101082427E-023   5.352899960072E-005   5.352899959197E-005   1.012724762262E-003   2.619723212593E-003   2.737131720359E-003   2.737131719678E-003   2.982632274053E-004   2.617146231442E-006   2.546916531561E-007   4.379467308166E-026   5.691959597497E-025   6.065308253257E-008   6.065308255233E-008   5.861210521584E-007   2.568051529001E-004   1.088502691306E-006     # MO Occupations (alpha spin)
<rt_tddft>:      7.00000   1.000000000008E+000   9.999996052722E-001   9.999999868214E-001   9.999998621340E-001   9.999998621340E-001   9.999997020047E-001   1.877977207718E-005   9.999163795196E-001   9.829525439277E-001   9.837942194473E-001   9.837942194597E-001   9.996516470014E-001   9.996516470009E-001   9.920569340388E-001   4.363886285511E-003   8.162249331145E-004   8.322504113185E-004   8.322504216362E-004   6.645880533160E-003   1.298762550541E-002   1.298762549901E-002   1.019557216882E-002  -4.886459822423E-021   1.194170228644E-020   2.664393659523E-004   2.664393654604E-004   9.015943624156E-004   3.273569020371E-005   1.633734242246E-005   1.633734243233E-005   5.161557814572E-005   1.907087810318E-019   3.984745295239E-020   2.193810819164E-004   2.193810818072E-004   1.451876222511E-004   1.015739044090E-024   7.363439560299E-024   3.738568621437E-005   3.738568620721E-005   8.110159526122E-006   1.592145458837E-003   2.194819096152E-003   2.194819095619E-003   2.994796357779E-004   3.176105074018E-006   6.020780562367E-008   2.601527377135E-026   1.165404017960E-025   3.289796094497E-008   3.289796098873E-008   1.054461985496E-007   2.572260007933E-007   3.724283031832E-008     # MO Occupations (beta spin)
<rt_tddft>:      7.00000   4.558809087742E-011   4.567829921095E-011   6.792430886648E-003     # Dipole moment [Ne] (alpha spin)
<rt_tddft>:      7.00000   6.008164934169E-011   5.838601911864E-011   1.317250066947E-002     # Dipole moment [Ne] (beta spin)
<rt_tddft>:      7.00000   1.056697402191E-010   1.040643183296E-010   1.996493155612E-002     # Dipole moment [Ne] (total spin)
<rt_tddft>:      7.00000  -4.910234460453E-010  -4.890176429544E-010   5.633599722654E+001     # Dipole moment [Ar] (alpha spin)
<rt_tddft>:      7.00000  -4.919855147079E-010  -4.901288955484E-010   5.634742411973E+001     # Dipole moment [Ar] (beta spin)
<rt_tddft>:      7.00000  -9.830089607532E-010  -9.791465385028E-010   4.336976246117E-001     # Dipole moment [Ar] (total spin)
<rt_tddft>:      7.00000  -4.274090042054E-010  -4.261861880548E-010   5.624189073402E+001     # Dipole moment [dimer] (alpha spin)
<rt_tddft>:      7.00000  -4.372987079312E-010  -4.367441362790E-010   5.624536058307E+001     # Dipole moment [dimer] (beta spin)
<rt_tddft>:      7.00000  -8.647077121366E-010  -8.629303243338E-010   2.375275954388E-001     # Dipole moment [dimer] (total spin)
<rt_tddft>:      7.00000        ### No applied E-field ###
 Grid integrated density:      27.000002574783
 Requested integration accuracy:   0.10E-05
 Grid integrated density:      27.000002558568
 Requested integration accuracy:   0.10E-05
 Grid integrated density:      27.000002566626
 Requested integration accuracy:   0.10E-05
 Grid integrated density:      27.000002563179
 Requested integration accuracy:   0.10E-05
 Grid integrated density:      27.000002564915
 Requested integration accuracy:   0.10E-05
 Grid integrated density:      27.000002564024
 Requested integration accuracy:   0.10E-05
 Grid integrated density:      27.000002564501
 Requested integration accuracy:   0.10E-05
 Grid integrated density:      27.000002564244
 Requested integration accuracy:   0.10E-05
 Grid integrated density:      27.000002564384
 Requested integration accuracy:   0.10E-05
 Grid integrated density:      27.000002564308
 Requested integration accuracy:   0.10E-05
 Grid integrated density:      27.000002564350
 Requested integration accuracy:   0.10E-05
 Grid integrated density:      27.000002564327
 Requested integration accuracy:   0.10E-05
 Grid integrated density:      27.000002564340
 Requested integration accuracy:   0.10E-05
 Grid integrated density:      27.000002564332
 Requested integration accuracy:   0.10E-05
<rt_tddft>:      8.00000   2.886421358180E+001     # Enuc
<rt_tddft>:      8.00000  -9.575288338660E+002     # Ecore
<rt_tddft>:      8.00000   3.168455540262E+002     # Ecoul
<rt_tddft>:      8.00000  -4.279424733924E+001     # Exc(1)
<rt_tddft>:      8.00000   0.000000000000E+000     # Exc(2)
<rt_tddft>:      8.00000  -6.546133135972E+002     # Etot
<rt_tddft>:      8.00000   1.844790976746E+000     # Eadded
<rt_tddft>:      8.00000  -5.019738102897E+000     # Charge [Ne] (alpha spin)
<rt_tddft>:      8.00000  -8.980261897077E+000     # Charge [Ar] (alpha spin)
<rt_tddft>:      8.00000  -1.399999999997E+001     # Charge [dimer] (alpha spin)
<rt_tddft>:      8.00000  -4.013577388359E+000     # Charge [Ne] (beta spin)
<rt_tddft>:      8.00000  -8.986422611614E+000     # Charge [Ar] (beta spin)
<rt_tddft>:      8.00000  -1.299999999997E+001     # Charge [dimer] (beta spin)
<rt_tddft>:      8.00000  -9.033315491256E+000     # Charge [Ne] (total spin)
<rt_tddft>:      8.00000  -1.796668450869E+001     # Charge [Ar] (total spin)
<rt_tddft>:      8.00000  -2.699999999995E+001     # Charge [dimer] (total spin)
<rt_tddft>:      8.00000   9.999999999985E-001   9.999993701909E-001   9.999999827252E-001   9.999999784603E-001   9.999999784603E-001   9.999998874547E-001   9.885725581228E-001   9.999125371391E-001   9.576013049442E-001   9.579629470874E-001   9.579629470988E-001   9.994154221666E-001   9.994154221659E-001   9.907519677849E-001   7.387129243874E-003   3.367635483130E-003   4.000581978919E-003   4.000582012615E-003   1.953815339210E-002   2.962505688798E-002   2.962505685359E-002   1.388839145478E-002  -4.563877103907E-021   1.495261888920E-020   4.738667272366E-004   4.738667274093E-004   1.343674307432E-003   1.664686700217E-004   2.913293717790E-005   2.913293723229E-005   1.030506168278E-004   1.797871430936E-019   3.347734769645E-020   1.851196013689E-004   1.851196012898E-004   9.674701209622E-004  -3.122069316067E-025   2.537538190262E-023   4.333558683860E-005   4.333558680673E-005   1.998364073022E-003   6.476306380832E-003   8.264467108532E-003   8.264467108599E-003   7.843009785660E-003   4.013670320150E-006   5.763894381349E-007   1.042209272030E-025   6.209880059855E-025   9.142992941875E-008   9.142992940927E-008   1.568185926517E-007   7.667445078069E-005   1.316800920225E-006     # MO Occupations (alpha spin)
<rt_tddft>:      8.00000   1.000000000006E+000   9.999996254712E-001   9.999999826640E-001   9.999999783619E-001   9.999999783619E-001   9.999998877997E-001   5.944138847455E-006   9.999170951910E-001   9.759011178075E-001   9.772326059420E-001   9.772326059542E-001   9.994304734397E-001   9.994304734385E-001   9.914380880392E-001   5.196320312528E-003   1.150100811079E-003   2.022824660348E-003   2.022824678912E-003   1.042895160811E-002   1.764355934373E-002   1.764355932670E-002   1.005075032162E-002  -5.247735677382E-021   1.124226094014E-020   3.884184540851E-004   3.884184545476E-004   7.677893454391E-004   1.325986111942E-004   2.577597936394E-005   2.577597939041E-005   8.205733347932E-005   6.419892532319E-020   1.260237929659E-020   7.249273980071E-005   7.249273973530E-005   1.101920796451E-004  -7.783564461869E-025   2.909618272217E-024   1.518211974262E-005   1.518211973959E-005   3.286257947296E-005   1.815404543360E-003   3.168650349318E-003   3.168650349779E-003   2.967314435551E-003   3.468804754398E-006   6.950922698997E-008   2.649549663738E-026   1.207588867920E-025   3.858073233226E-008   3.858073238680E-008   7.137201925626E-008   2.547254039456E-007   5.250906784866E-008     # MO Occupations (beta spin)
<rt_tddft>:      8.00000  -4.499457289885E-011  -4.130714976290E-011  -2.801981638941E-002     # Dipole moment [Ne] (alpha spin)
<rt_tddft>:      8.00000   3.499759593239E-012   5.552017360712E-012  -1.445601594777E-002     # Dipole moment [Ne] (beta spin)
<rt_tddft>:      8.00000  -4.149481330561E-011  -3.575513240219E-011  -4.247583233719E-002     # Dipole moment [Ne] (total spin)
<rt_tddft>:      8.00000  -5.762948066246E-010  -5.733361314159E-010   5.633955486995E+001     # Dipole moment [Ar] (alpha spin)
<rt_tddft>:      8.00000  -5.420266837514E-010  -5.395116252548E-010   5.635456278881E+001     # Dipole moment [Ar] (beta spin)
<rt_tddft>:      8.00000  -1.118321490376E-009  -1.112847756671E-009   4.443939371025E-001     # Dipole moment [Ar] (total spin)
<rt_tddft>:      8.00000  -4.678032461318E-010  -4.663426547923E-010   5.626347071610E+001     # Dipole moment [dimer] (alpha spin)
<rt_tddft>:      8.00000  -4.575825817162E-010  -4.569671058499E-010   5.627391321146E+001     # Dipole moment [dimer] (beta spin)
<rt_tddft>:      8.00000  -9.253858278480E-010  -9.233097606422E-010   2.876602059110E-001     # Dipole moment [dimer] (total spin)
<rt_tddft>:      8.00000        ### No applied E-field ###
 Grid integrated density:      27.000002645325
 Requested integration accuracy:   0.10E-05
 Grid integrated density:      27.000002661270
 Requested integration accuracy:   0.10E-05
 Grid integrated density:      27.000002659111
 Requested integration accuracy:   0.10E-05
 Grid integrated density:      27.000002660389
 Requested integration accuracy:   0.10E-05
 Grid integrated density:      27.000002659845
 Requested integration accuracy:   0.10E-05
 Grid integrated density:      27.000002660111
 Requested integration accuracy:   0.10E-05
 Grid integrated density:      27.000002659983
 Requested integration accuracy:   0.10E-05
 Grid integrated density:      27.000002660046
 Requested integration accuracy:   0.10E-05
 Grid integrated density:      27.000002660015
 Requested integration accuracy:   0.10E-05
 Grid integrated density:      27.000002660031
 Requested integration accuracy:   0.10E-05
 Grid integrated density:      27.000002660023
 Requested integration accuracy:   0.10E-05
<rt_tddft>:      9.00000   2.886421358180E+001     # Enuc
<rt_tddft>:      9.00000  -9.570417397275E+002     # Ecore
<rt_tddft>:      9.00000   3.162625597634E+002     # Ecoul
<rt_tddft>:      9.00000  -4.269844020469E+001     # Exc(1)
<rt_tddft>:      9.00000   0.000000000000E+000     # Exc(2)
<rt_tddft>:      9.00000  -6.546134065870E+002     # Etot
<rt_tddft>:      9.00000   1.844697986914E+000     # Eadded
<rt_tddft>:      9.00000  -4.996811755239E+000     # Charge [Ne] (alpha spin)
<rt_tddft>:      9.00000  -9.003188244733E+000     # Charge [Ar] (alpha spin)
<rt_tddft>:      9.00000  -1.399999999997E+001     # Charge [dimer] (alpha spin)
<rt_tddft>:      9.00000  -4.006689129561E+000     # Charge [Ne] (beta spin)
<rt_tddft>:      9.00000  -8.993310870411E+000     # Charge [Ar] (beta spin)
<rt_tddft>:      9.00000  -1.299999999997E+001     # Charge [dimer] (beta spin)
<rt_tddft>:      9.00000  -9.003500884801E+000     # Charge [Ne] (total spin)
<rt_tddft>:      9.00000  -1.799649911514E+001     # Charge [Ar] (total spin)
<rt_tddft>:      9.00000  -2.699999999994E+001     # Charge [dimer] (total spin)
<rt_tddft>:      9.00000   1.000000000008E+000   9.999997028436E-001   9.999999798507E-001   9.999999460280E-001   9.999999460280E-001   9.999998775767E-001   9.964925007880E-001   9.998785486337E-001   9.742172653076E-001   9.714622707470E-001   9.714622707586E-001   9.991487705587E-001   9.991487705575E-001   9.911589723517E-001   6.248752580381E-003   1.829130037207E-003   3.512196294087E-003   3.512196311363E-003   9.983696397837E-003   1.325566068865E-002   1.325566066717E-002   5.487922767872E-003  -3.200658572847E-021   2.229279300100E-020   8.458238384833E-004   8.458238393124E-004   1.620061816088E-003   2.324977187606E-004   1.917569778628E-005   1.917569779898E-005   9.757662050549E-005   5.471485379126E-019   1.134501104210E-019   6.122359534261E-004   6.122359531676E-004   9.971658401318E-004   9.105915532576E-024   3.295339713747E-023   1.313334857491E-004   1.313334856949E-004   8.500012707728E-004   7.527738142787E-003   1.101245248658E-002   1.101245248635E-002   3.237026401994E-003   2.191400890259E-006   3.858492632633E-007   7.124757340844E-026   5.715482449371E-025   1.341956770937E-007   1.341956771139E-007   6.493980444966E-007   1.379951325047E-004   3.612825519441E-007     # MO Occupations (alpha spin)
<rt_tddft>:      9.00000   1.000000000015E+000   9.999996799605E-001   9.999999798193E-001   9.999999459195E-001   9.999999459195E-001   9.999998773422E-001   2.421323010974E-006   9.998845332650E-001   9.790539888419E-001   9.781553431153E-001   9.781553431263E-001   9.991536871982E-001   9.991536871967E-001   9.915548685719E-001   5.340229628233E-003   1.398889998163E-003   2.549754728391E-003   2.549754744016E-003   8.791046501717E-003   1.287822830763E-002   1.287822828848E-002   5.969886379517E-003  -3.959651656981E-021   1.847739560540E-020   7.450066771229E-004   7.450066781728E-004   1.179387770855E-003   2.247695620608E-004   2.135540606127E-005   2.135540607145E-005   8.749536194449E-005   2.588802689463E-019   5.504658507832E-020   3.000678708744E-004   3.000678707203E-004   2.072931507868E-004   4.879016108367E-024   1.505619057431E-023   7.344612359248E-005   7.344612358468E-005   4.628783936961E-005   4.098439222757E-003   6.123112045471E-003   6.123112046089E-003   2.158816592364E-003   1.601375204111E-006   7.245653178332E-008   1.714410755444E-026   1.452092210587E-025   5.258151557805E-008   5.258151566347E-008   1.608868666123E-007   2.390085797980E-007   3.514332007530E-008     # MO Occupations (beta spin)
<rt_tddft>:      9.00000  -4.857718949559E-011  -4.883682949196E-011   6.669045757249E-003     # Dipole moment [Ne] (alpha spin)
<rt_tddft>:      9.00000  -4.376286291583E-011  -4.085774836124E-011  -9.929366601759E-003     # Dipole moment [Ne] (beta spin)
<rt_tddft>:      9.00000  -9.234005241142E-011  -8.969457785320E-011  -3.260320844510E-003     # Dipole moment [Ne] (total spin)
<rt_tddft>:      9.00000  -5.204198229912E-010  -5.173992798740E-010   5.634743078658E+001     # Dipole moment [Ar] (alpha spin)
<rt_tddft>:      9.00000  -4.811458779825E-010  -4.788172690039E-010   5.636398858262E+001     # Dipole moment [Ar] (beta spin)
<rt_tddft>:      9.00000  -1.001565700974E-009  -9.962165488778E-010   4.616956475433E-001     # Dipole moment [Ar] (total spin)
<rt_tddft>:      9.00000  -3.958435764979E-010  -3.959052528919E-010   5.631400856929E+001     # Dipole moment [dimer] (alpha spin)
<rt_tddft>:      9.00000  -3.874130157874E-010  -3.864237119189E-010   5.632755698388E+001     # Dipole moment [dimer] (beta spin)
<rt_tddft>:      9.00000  -7.832565922853E-010  -7.823289648109E-010   3.918418315200E-001     # Dipole moment [dimer] (total spin)
<rt_tddft>:      9.00000        ### No applied E-field ###
 Grid integrated density:      27.000002723989
 Requested integration accuracy:   0.10E-05
 Grid integrated density:      27.000002747371
 Requested integration accuracy:   0.10E-05
 Grid integrated density:      27.000002744291
 Requested integration accuracy:   0.10E-05
 Grid integrated density:      27.000002745885
 Requested integration accuracy:   0.10E-05
 Grid integrated density:      27.000002745221
 Requested integration accuracy:   0.10E-05
 Grid integrated density:      27.000002745554
 Requested integration accuracy:   0.10E-05
 Grid integrated density:      27.000002745380
 Requested integration accuracy:   0.10E-05
 Grid integrated density:      27.000002745474
 Requested integration accuracy:   0.10E-05
 Grid integrated density:      27.000002745423
 Requested integration accuracy:   0.10E-05
 Grid integrated density:      27.000002745450
 Requested integration accuracy:   0.10E-05
<rt_tddft>:     10.00000   2.886421358180E+001     # Enuc
<rt_tddft>:     10.00000  -9.550422297836E+002     # Ecore
<rt_tddft>:     10.00000   3.139759330033E+002     # Ecoul
<rt_tddft>:     10.00000  -4.241144871746E+001     # Exc(1)
<rt_tddft>:     10.00000   0.000000000000E+000     # Exc(2)
<rt_tddft>:     10.00000  -6.546135319159E+002     # Etot
<rt_tddft>:     10.00000   1.844572658025E+000     # Eadded
<rt_tddft>:     10.00000  -4.996036571688E+000     # Charge [Ne] (alpha spin)
<rt_tddft>:     10.00000  -9.003963428283E+000     # Charge [Ar] (alpha spin)
<rt_tddft>:     10.00000  -1.399999999997E+001     # Charge [dimer] (alpha spin)
<rt_tddft>:     10.00000  -4.001269907474E+000     # Charge [Ne] (beta spin)
<rt_tddft>:     10.00000  -8.998730092497E+000     # Charge [Ar] (beta spin)
<rt_tddft>:     10.00000  -1.299999999997E+001     # Charge [dimer] (beta spin)
<rt_tddft>:     10.00000  -8.997306479162E+000     # Charge [Ne] (total spin)
<rt_tddft>:     10.00000  -1.800269352078E+001     # Charge [Ar] (total spin)
<rt_tddft>:     10.00000  -2.699999999994E+001     # Charge [dimer] (total spin)
[...]
<rt_tddft>:    609.00000   1.481899075772E-009   1.484413207005E-009   2.181649348859E-002     # Dipole moment [Ne] (alpha spin)
<rt_tddft>:    609.00000  -5.845687135617E-010  -5.805900515710E-010  -2.771099618335E-002     # Dipole moment [Ne] (beta spin)
<rt_tddft>:    609.00000   8.973303622108E-010   9.038231554336E-010  -5.894502694758E-003     # Dipole moment [Ne] (total spin)
<rt_tddft>:    609.00000   2.535865476246E-009   2.538024194783E-009   5.630361715868E+001     # Dipole moment [Ar] (alpha spin)
<rt_tddft>:    609.00000  -3.098686584741E-009  -3.088171200378E-009   5.622731188378E+001     # Dipole moment [Ar] (beta spin)
<rt_tddft>:    609.00000  -5.628211084952E-010  -5.501470055958E-010   2.812053208100E-001     # Dipole moment [Ar] (total spin)
<rt_tddft>:    609.00000   3.269900304730E-009   3.273794157081E-009   5.626146751324E+001     # Dipole moment [dimer] (alpha spin)
<rt_tddft>:    609.00000  -1.515054891605E-009  -1.516658430034E-009   5.622284984828E+001     # Dipole moment [dimer] (beta spin)
<rt_tddft>:    609.00000   1.754845413125E-009   1.757135727046E-009   2.345936398591E-001     # Dipole moment [dimer] (total spin)
<rt_tddft>:    609.00000        ### No applied E-field ###
 Grid integrated density:      27.000002771446
 Requested integration accuracy:   0.10E-05
 Grid integrated density:      27.000002789355
 Requested integration accuracy:   0.10E-05
 Grid integrated density:      27.000002785800
 Requested integration accuracy:   0.10E-05
 Grid integrated density:      27.000002788317
 Requested integration accuracy:   0.10E-05
 Grid integrated density:      27.000002786948
 Requested integration accuracy:   0.10E-05
 Grid integrated density:      27.000002787725
 Requested integration accuracy:   0.10E-05
 Grid integrated density:      27.000002787295
 Requested integration accuracy:   0.10E-05
 Grid integrated density:      27.000002787534
 Requested integration accuracy:   0.10E-05
 Grid integrated density:      27.000002787402
 Requested integration accuracy:   0.10E-05
 Grid integrated density:      27.000002787476
 Requested integration accuracy:   0.10E-05
 Grid integrated density:      27.000002787434
 Requested integration accuracy:   0.10E-05
 Grid integrated density:      27.000002787457
 Requested integration accuracy:   0.10E-05
 Grid integrated density:      27.000002787445
 Requested integration accuracy:   0.10E-05
<rt_tddft>:    610.00000   2.886421358180E+001     # Enuc
<rt_tddft>:    610.00000  -9.551972993673E+002     # Ecore
<rt_tddft>:    610.00000   3.141452920947E+002     # Ecoul
<rt_tddft>:    610.00000  -4.242546841084E+001     # Exc(1)
<rt_tddft>:    610.00000   0.000000000000E+000     # Exc(2)
<rt_tddft>:    610.00000  -6.546132621017E+002     # Etot
<rt_tddft>:    610.00000   1.844842472294E+000     # Eadded
<rt_tddft>:    610.00000  -4.996036807597E+000     # Charge [Ne] (alpha spin)
<rt_tddft>:    610.00000  -9.003963191699E+000     # Charge [Ar] (alpha spin)
<rt_tddft>:    610.00000  -1.399999999930E+001     # Charge [dimer] (alpha spin)
<rt_tddft>:    610.00000  -3.985224658281E+000     # Charge [Ne] (beta spin)
<rt_tddft>:    610.00000  -9.014775341015E+000     # Charge [Ar] (beta spin)
<rt_tddft>:    610.00000  -1.299999999930E+001     # Charge [dimer] (beta spin)
<rt_tddft>:    610.00000  -8.981261465878E+000     # Charge [Ne] (total spin)
<rt_tddft>:    610.00000  -1.801873853271E+001     # Charge [Ar] (total spin)
<rt_tddft>:    610.00000  -2.699999999859E+001     # Charge [dimer] (total spin)
<rt_tddft>:    610.00000   9.999999993714E-001   9.999973554428E-001   9.999999491948E-001   9.999998941002E-001   9.999998941005E-001   9.999998653687E-001   9.899266195632E-001   9.989172675625E-001   9.922039498276E-001   9.978545449769E-001   9.978545453038E-001   9.990261236932E-001   9.990261236943E-001   9.944804012683E-001   3.636146687777E-003   2.339541201878E-003   4.400411188549E-004   4.400416493996E-004   4.692331826957E-004   1.239976848120E-003   1.239976902390E-003   6.234039155227E-003   3.874868145917E-018   4.257480601741E-018   5.732720419319E-004   5.732720271199E-004   1.502626064877E-003   1.363514816358E-004   8.684429883765E-006   8.684431278328E-006   3.760719325579E-004   4.391736607385E-019   3.755762442818E-019   1.539752209808E-004   1.539752132527E-004   2.876222416600E-003   2.241786544505E-020   2.667801897435E-020   3.734174951494E-005   3.734174786619E-005   3.459423217310E-003   2.646665076997E-003   6.661192826818E-004   6.661193123136E-004   7.116905393098E-004   3.412282426354E-006   5.982336967216E-006   5.204586284914E-021   4.097049413385E-020   2.604092492232E-008   2.604092576154E-008   4.980795130524E-006   7.083934417188E-005   1.366055084478E-006     # MO Occupations (alpha spin)
<rt_tddft>:    610.00000   9.999999993737E-001   9.999996562829E-001   9.999999417660E-001   9.999999602060E-001   9.999999602060E-001   9.999998609402E-001   6.164636604367E-005   9.995096971108E-001   9.721400408267E-001   9.943267101003E-001   9.943267103408E-001   9.989549594053E-001   9.989549594415E-001   9.902715417531E-001   1.163122761283E-002   2.082024471657E-003   2.961673317381E-003   2.961674202632E-003   1.628115398143E-003   1.632916123718E-003   1.632915810127E-003   1.608567538245E-002   3.509881435701E-018   3.833791792678E-018   7.952591961252E-004   7.952592224434E-004   1.276521899845E-003   1.143354993309E-004   2.367693521251E-005   2.367693811212E-005   1.152894815505E-004   6.679969305382E-019   3.605250710761E-019   1.386952427297E-004   1.386951997375E-004   2.367518531487E-004   7.264158161134E-021   1.071258398927E-020   1.109312389545E-005   1.109312505523E-005   9.883875315600E-005   1.479730835982E-004   1.155048384650E-003   1.155048309913E-003   3.857179942450E-003   7.431347127882E-004   6.990495134839E-008   3.526726955360E-022   3.647490376593E-022   7.546315334140E-009   7.546312980764E-009   1.714057522259E-007   5.941046036324E-008   2.461398001288E-007     # MO Occupations (beta spin)
<rt_tddft>:    610.00000   1.968902337661E-010   1.844153878285E-010   2.074904407622E-002     # Dipole moment [Ne] (alpha spin)
<rt_tddft>:    610.00000   5.174298854067E-009   5.174735869826E-009   3.117058757307E-002     # Dipole moment [Ne] (beta spin)
<rt_tddft>:    610.00000   5.371189087833E-009   5.359151257655E-009   5.191963164929E-002     # Dipole moment [Ne] (total spin)
<rt_tddft>:    610.00000  -2.313055174530E-009  -2.316982939593E-009   5.634362704620E+001     # Dipole moment [Ar] (alpha spin)
<rt_tddft>:    610.00000  -7.243371233671E-009  -7.231158598922E-009   5.631727160495E+001     # Dipole moment [Ar] (beta spin)
<rt_tddft>:    610.00000  -9.556426408201E-009  -9.548141538514E-009   4.111749295034E-001     # Dipole moment [Ar] (total spin)
<rt_tddft>:    610.00000  -1.514889910375E-009  -1.521329581331E-009   5.628911577726E+001     # Dipole moment [dimer] (alpha spin)
<rt_tddft>:    610.00000  -5.097832364967E-009  -5.086962760129E-009   5.626935236506E+001     # Dipole moment [dimer] (beta spin)
<rt_tddft>:    610.00000  -6.612722275342E-009  -6.608292341460E-009   3.087444206660E-001     # Dipole moment [dimer] (total spin)
<rt_tddft>:    610.00000        ### No applied E-field ###
 Grid integrated density:      27.000002741398
 Requested integration accuracy:   0.10E-05
 Grid integrated density:      27.000002757485
 Requested integration accuracy:   0.10E-05
 Grid integrated density:      27.000002758049
 Requested integration accuracy:   0.10E-05
 Grid integrated density:      27.000002757073
 Requested integration accuracy:   0.10E-05
 Grid integrated density:      27.000002757731
 Requested integration accuracy:   0.10E-05
 Grid integrated density:      27.000002757356
 Requested integration accuracy:   0.10E-05
 Grid integrated density:      27.000002757560
 Requested integration accuracy:   0.10E-05
 Grid integrated density:      27.000002757453
 Requested integration accuracy:   0.10E-05
 Grid integrated density:      27.000002757509
 Requested integration accuracy:   0.10E-05
 Grid integrated density:      27.000002757480
 Requested integration accuracy:   0.10E-05
 Grid integrated density:      27.000002757495
 Requested integration accuracy:   0.10E-05
 Grid integrated density:      27.000002757488
 Requested integration accuracy:   0.10E-05
 Grid integrated density:      27.000002757492
 Requested integration accuracy:   0.10E-05
 Grid integrated density:      27.000002757490
 Requested integration accuracy:   0.10E-05
<rt_tddft>:    611.00000   2.886421358180E+001     # Enuc
<rt_tddft>:    611.00000  -9.577059561427E+002     # Ecore
<rt_tddft>:    611.00000   3.170306916744E+002     # Ecoul
<rt_tddft>:    611.00000  -4.280234243998E+001     # Exc(1)
<rt_tddft>:    611.00000   0.000000000000E+000     # Exc(2)
<rt_tddft>:    611.00000  -6.546133933265E+002     # Etot
<rt_tddft>:    611.00000   1.844711247460E+000     # Eadded
<rt_tddft>:    611.00000  -5.002695087081E+000     # Charge [Ne] (alpha spin)
<rt_tddft>:    611.00000  -8.997304912215E+000     # Charge [Ar] (alpha spin)
<rt_tddft>:    611.00000  -1.399999999930E+001     # Charge [dimer] (alpha spin)
<rt_tddft>:    611.00000  -3.993388085818E+000     # Charge [Ne] (beta spin)
<rt_tddft>:    611.00000  -9.006611913476E+000     # Charge [Ar] (beta spin)
<rt_tddft>:    611.00000  -1.299999999929E+001     # Charge [dimer] (beta spin)
<rt_tddft>:    611.00000  -8.996083172899E+000     # Charge [Ne] (total spin)
<rt_tddft>:    611.00000  -1.800391682569E+001     # Charge [Ar] (total spin)
<rt_tddft>:    611.00000  -2.699999999859E+001     # Charge [dimer] (total spin)
<rt_tddft>:    611.00000   9.999999993698E-001   9.999978445652E-001   9.999999522209E-001   9.999998525705E-001   9.999998525708E-001   9.999998592581E-001   9.929585977062E-001   9.990822260484E-001   9.801059742859E-001   9.825249391972E-001   9.825249396923E-001   9.989446781998E-001   9.989446782061E-001   9.942403646650E-001   5.987806900618E-003   1.502617833400E-003   1.784143176848E-004   1.784142206439E-004   6.421119697440E-003   7.820910084008E-003   7.820911064763E-003   3.729847848332E-003   2.730010746867E-018   3.112633930623E-018   9.917590439435E-004   9.917589948034E-004   1.445064770640E-003   9.520262599178E-005   1.809140956235E-005   1.809141139766E-005   1.299829872971E-004   9.263596356985E-019   7.559656329406E-019   2.451754938258E-004   2.451754768985E-004   1.493146754490E-003   2.544252952049E-020   3.070143281530E-020   1.589262405501E-004   1.589262377958E-004   7.769909249486E-004   6.823562996117E-003   9.117132095611E-003   9.117132090996E-003   5.086934079168E-003   3.810398275025E-006   8.393707220826E-006   3.139567712641E-021   4.351504649303E-020   1.206535513212E-007   1.206535519978E-007   7.915597084095E-006   1.015975847455E-004   1.186543686722E-006     # MO Occupations (alpha spin)
<rt_tddft>:    611.00000   9.999999993724E-001   9.999997182430E-001   9.999999453881E-001   9.999999468328E-001   9.999999468328E-001   9.999998870381E-001   3.352582466261E-005   9.993949233660E-001   9.506798920366E-001   9.837243228539E-001   9.837243231730E-001   9.988728457400E-001   9.988728457806E-001   9.902155067613E-001   1.338109446924E-002   1.966439442717E-003   1.234144436937E-003   1.234145142844E-003   8.763819178096E-003   8.880527926314E-003   8.880527795394E-003   2.027365290618E-002   2.574217323203E-018   2.881916358977E-018   7.683349995272E-004   7.683349739314E-004   6.268840407017E-004   5.862502361598E-005   1.273096615284E-005   1.273096910223E-005   8.270399834898E-005   6.006112958669E-019   2.244152261497E-019   1.820353831600E-004   1.820353756475E-004   2.399723491910E-004   5.081594226250E-021   7.958717765308E-021   9.079470203410E-005   9.079469891115E-005   2.229097086405E-004   4.371265293132E-003   6.234271646708E-003   6.234271704407E-003   8.831885172009E-003   8.565753209337E-004   1.377026659871E-007   2.208666207177E-022   2.377622084947E-022   4.399502751655E-008   4.399502266033E-008   3.705903540745E-007   1.170679321171E-007   1.490762726104E-007     # MO Occupations (beta spin)
<rt_tddft>:    611.00000  -1.637082324337E-009  -1.627894446303E-009   4.469760844026E-003     # Dipole moment [Ne] (alpha spin)
<rt_tddft>:    611.00000   4.864388258543E-009   4.874409201875E-009   1.877035353837E-002     # Dipole moment [Ne] (beta spin)
<rt_tddft>:    611.00000   3.227305934206E-009   3.246514755572E-009   2.324011438240E-002     # Dipole moment [Ne] (total spin)
<rt_tddft>:    611.00000  -5.671561546224E-009  -5.678446701175E-009   5.637871124966E+001     # Dipole moment [Ar] (alpha spin)
<rt_tddft>:    611.00000  -8.163242860693E-009  -8.145917693108E-009   5.635904772176E+001     # Dipole moment [Ar] (beta spin)
<rt_tddft>:    611.00000  -1.383480440692E-008  -1.382436439428E-008   4.880352497686E-001     # Dipole moment [Ar] (total spin)
<rt_tddft>:    611.00000  -5.644679542125E-009  -5.631906409697E-009   5.631640730171E+001     # Dipole moment [dimer] (alpha spin)
<rt_tddft>:    611.00000  -5.781028067480E-009  -5.754949138240E-009   5.627184497619E+001     # Dipole moment [dimer] (beta spin)
<rt_tddft>:    611.00000  -1.142570760961E-008  -1.138685554794E-008   3.385285562436E-001     # Dipole moment [dimer] (total spin)
<rt_tddft>:    611.00000        ### No applied E-field ###
 Grid integrated density:      27.000002714663
 Requested integration accuracy:   0.10E-05
 Grid integrated density:      27.000002747682
 Requested integration accuracy:   0.10E-05
 Grid integrated density:      27.000002739425
 Requested integration accuracy:   0.10E-05
 Grid integrated density:      27.000002744074
 Requested integration accuracy:   0.10E-05
 Grid integrated density:      27.000002741865
 Requested integration accuracy:   0.10E-05
 Grid integrated density:      27.000002743030
 Requested integration accuracy:   0.10E-05
 Grid integrated density:      27.000002742433
 Requested integration accuracy:   0.10E-05
 Grid integrated density:      27.000002742747
 Requested integration accuracy:   0.10E-05
 Grid integrated density:      27.000002742583
 Requested integration accuracy:   0.10E-05
 Grid integrated density:      27.000002742669
 Requested integration accuracy:   0.10E-05
 Grid integrated density:      27.000002742624
 Requested integration accuracy:   0.10E-05
 Grid integrated density:      27.000002742647
 Requested integration accuracy:   0.10E-05
 Grid integrated density:      27.000002742635
 Requested integration accuracy:   0.10E-05
 Grid integrated density:      27.000002742642
 Requested integration accuracy:   0.10E-05
<rt_tddft>:    612.00000   2.886421358180E+001     # Enuc
<rt_tddft>:    612.00000  -9.562086837106E+002     # Ecore
<rt_tddft>:    612.00000   3.153179765929E+002     # Ecoul
<rt_tddft>:    612.00000  -4.258677714918E+001     # Exc(1)
<rt_tddft>:    612.00000   0.000000000000E+000     # Exc(2)
<rt_tddft>:    612.00000  -6.546132706851E+002     # Etot
<rt_tddft>:    612.00000   1.844833888877E+000     # Eadded
<rt_tddft>:    612.00000  -5.018372400001E+000     # Charge [Ne] (alpha spin)
<rt_tddft>:    612.00000  -8.981627599293E+000     # Charge [Ar] (alpha spin)
<rt_tddft>:    612.00000  -1.399999999929E+001     # Charge [dimer] (alpha spin)
<rt_tddft>:    612.00000  -3.998608902604E+000     # Charge [Ne] (beta spin)
<rt_tddft>:    612.00000  -9.001391096690E+000     # Charge [Ar] (beta spin)
<rt_tddft>:    612.00000  -1.299999999929E+001     # Charge [dimer] (beta spin)
<rt_tddft>:    612.00000  -9.016981302605E+000     # Charge [Ne] (total spin)
<rt_tddft>:    612.00000  -1.798301869598E+001     # Charge [Ar] (total spin)
<rt_tddft>:    612.00000  -2.699999999859E+001     # Charge [dimer] (total spin)
<rt_tddft>:    612.00000   9.999999993657E-001   9.999985134754E-001   9.999999563266E-001   9.999998512942E-001   9.999998512945E-001   9.999998495801E-001   9.848823653337E-001   9.990877644424E-001   9.730120739698E-001   9.783114819917E-001   9.783114822685E-001   9.990395081615E-001   9.990395081696E-001   9.944251265966E-001   7.240293307522E-003   3.838645675250E-003   1.294087791888E-003   1.294088135727E-003   1.510007026509E-002   1.869360463585E-002   1.869360472363E-002   9.367938175379E-003   2.967119906754E-018   3.397952009488E-018   1.003155353321E-003   1.003155319694E-003   5.360744001005E-004   2.637425179443E-005   1.686259760625E-005   1.686259660525E-005   1.097734531107E-004   4.267054120672E-019   3.549597181131E-019   2.223379250563E-005   2.223379170258E-005   2.072216984880E-003   2.058650348307E-020   2.445617405772E-020   2.556382099910E-005   2.556382040209E-005   2.784130669857E-003   4.001786913559E-003   1.593618169498E-003   1.593618206627E-003   3.413036824059E-003   6.616992137413E-006   8.565018164046E-006   3.462972518910E-021   4.795868485908E-020   3.199515000133E-008   3.199514856626E-008   6.473022728092E-006   8.177875584195E-005   5.755680838869E-007     # MO Occupations (alpha spin)
<rt_tddft>:    612.00000   9.999999993666E-001   9.999995371724E-001   9.999999517351E-001   9.999999444252E-001   9.999999444252E-001   9.999998706289E-001   4.242568208697E-005   9.992427836160E-001   9.546378535556E-001   9.841211560365E-001   9.841211564549E-001   9.989476610806E-001   9.989476611221E-001   9.910639446698E-001   1.720785802593E-002   1.666333787088E-003   3.858910475023E-004   3.858912107343E-004   1.432827513270E-002   1.512914696305E-002   1.512914760948E-002   1.575504161842E-002   2.946562498364E-018   3.269845199279E-018   5.484675120087E-004   5.484674851599E-004   6.337149585122E-004   4.932024273563E-005   5.654654201245E-006   5.654654145898E-006   1.691894146381E-004   7.314979377371E-019   4.828614020761E-019   3.740440918569E-005   3.740440342621E-005   5.618146892550E-004   4.609518971959E-021   7.882153279421E-021   3.094539955958E-005   3.094539592494E-005   1.971915561757E-004   1.702192510828E-003   7.937066888820E-004   7.937067327243E-004   1.928518470031E-003   8.133542436388E-004   7.679844209773E-008   3.371607383932E-022   3.578151583564E-022   2.110697158586E-008   2.110697152351E-008   2.944980437423E-007   2.707389106440E-007   1.862571108827E-007     # MO Occupations (beta spin)
<rt_tddft>:    612.00000   5.979237025572E-011   5.416787597414E-011  -4.346492068980E-002     # Dipole moment [Ne] (alpha spin)
<rt_tddft>:    612.00000  -1.782551270685E-009  -1.767233842948E-009  -4.151926157969E-002     # Dipole moment [Ne] (beta spin)
<rt_tddft>:    612.00000  -1.722758900430E-009  -1.713065966974E-009  -8.498418226949E-002     # Dipole moment [Ne] (total spin)
<rt_tddft>:    612.00000  -4.506693814985E-009  -4.507520023928E-009   5.635233430574E+001     # Dipole moment [Ar] (alpha spin)
<rt_tddft>:    612.00000  -5.901611412555E-009  -5.872296299723E-009   5.631217016649E+001     # Dipole moment [Ar] (beta spin)
<rt_tddft>:    612.00000  -1.040830522754E-008  -1.037981632365E-008   4.147807505690E-001     # Dipole moment [Ar] (total spin)
<rt_tddft>:    612.00000  -3.638462518467E-009  -3.640055515330E-009   5.626523886364E+001     # Dipole moment [dimer] (alpha spin)
<rt_tddft>:    612.00000  -8.413525402354E-009  -8.382313889534E-009   5.618938501713E+001     # Dipole moment [dimer] (beta spin)
<rt_tddft>:    612.00000  -1.205198792082E-008  -1.202236940486E-008   2.049001591163E-001     # Dipole moment [dimer] (total spin)
<rt_tddft>:    612.00000        ### No applied E-field ###
 Grid integrated density:      27.000002761453
 Requested integration accuracy:   0.10E-05
 Grid integrated density:      27.000002775522
 Requested integration accuracy:   0.10E-05
 Grid integrated density:      27.000002781515
 Requested integration accuracy:   0.10E-05
 Grid integrated density:      27.000002779116
 Requested integration accuracy:   0.10E-05
 Grid integrated density:      27.000002780422
 Requested integration accuracy:   0.10E-05
