 argument  1 = NeAr3.3_aDZ_dtime.4.re



============================== echo of input deck ==============================
echo

permanent_dir ./per
scratch_dir ./scr

restart NeAr3.3_aDZ_dtime.4

rt_tddft
  tmax 3000
  dt 4
  load restart
  print charge dipole field energy moocc

#  mocap
#    expconst 1.0     # exponential constant for CAP
#    emin 0.07         # any MO with eigenvalue >= 0.5 Ha will have CAP applied to it
#    prefac 1.0       # prefactor for exponential
#    maxval 1000.0    # clamp CAP at this value (in Ha)
#    on               # turn off CAP
#    nochecks         # disable checks for speed
##    noprint          # don't print CAP value
#  end

end
task dft rt_tddft
================================================================================


                                         
                                         


             Northwest Computational Chemistry Package (NWChem) 7.0.2
             --------------------------------------------------------


                    Environmental Molecular Sciences Laboratory
                       Pacific Northwest National Laboratory
                                Richland, WA 99352

                              Copyright (c) 1994-2020
                       Pacific Northwest National Laboratory
                            Battelle Memorial Institute

             NWChem is an open-source computational chemistry package
                        distributed under the terms of the
                      Educational Community License (ECL) 2.0
             A copy of the license is included with this distribution
                              in the LICENSE.TXT file

                                  ACKNOWLEDGMENT
                                  --------------

            This software and its documentation were developed at the
            EMSL at Pacific Northwest National Laboratory, a multiprogram
            national laboratory, operated for the U.S. Department of Energy
            by Battelle under Contract Number DE-AC05-76RL01830. Support
            for this work was provided by the Department of Energy Office
            of Biological and Environmental Research, Office of Basic
            Energy Sciences, and the Office of Advanced Scientific Computing.


           Job information
           ---------------

    hostname        = atl1-1-02-010-13-2.pace.gatech.edu
    program         = nwchem
    date            = Wed Jan 11 13:29:34 2023

    compiled        = Thu_May_20_07:57:16_2021
    source          = /home/conda/feedstock_root/build_artifacts/nwchem_1621493927360/work
    nwchem branch   = 7.0.2
    nwchem revision = d613826
    ga revision     = 5.7.2
    use scalapack   = T
    input           = NeAr3.3_aDZ_dtime.4.re
    prefix          = NeAr3.3_aDZ_dtime.4.
    data base       = ./per/NeAr3.3_aDZ_dtime.4.db
    status          = restart
    nproc           =        1
    time left       =     -1s



           Memory information
           ------------------

    heap     =   13107198 doubles =    100.0 Mbytes
    stack    =   13107195 doubles =    100.0 Mbytes
    global   =   26214400 doubles =    200.0 Mbytes (distinct from heap & stack)
    total    =   52428793 doubles =    400.0 Mbytes
    verify   = yes
    hardfail = no 


           Directory information
           ---------------------

  0 permanent = ./per
  0 scratch   = ./scr


           Previous task information
           -------------------------

    Theory    = dft                             
    Operation = rt_tddft                      
    Status    = unknown                       
    Qmmm      = F
    Ignore    = F


           Geometries in the database
           --------------------------

       Name                              Natoms  Last Modified
       --------------------------------  ------  ------------------------
    1  Ne                                     1  Wed Jan 11 11:39:42 2023  
    2  Ar                                     1  Wed Jan 11 11:39:42 2023  
    3  dimer                                  2  Wed Jan 11 11:39:42 2023  

  The geometry named "dimer" is the default for restart



           Basis sets in the database
           --------------------------

       Name                              Natoms  Last Modified
        --------------------------------  ------  ------------------------
    1  ao basis                               0  Wed Jan 11 11:39:42 2023  

  The basis set named "ao basis" is the default AO basis for restart




                                NWChem Input Module
                                -------------------



                           NWChem Real-Time TDDFT Module
                           -----------------------------




 Summary of "ao basis" -> "ao basis" (cartesian)
 ------------------------------------------------------------------------------
       Tag                 Description            Shells   Functions and Types
 ---------------- ------------------------------  ------  ---------------------
 Ne                       aug-cc-pvdz                9       25   4s3p2d
 Ar                       aug-cc-pvdz               11       29   5s4p2d


  int_init: cando_txs set to always be  F
  Caching 1-el integrals 

            General Information
            -------------------
          SCF calculation type: DFT
          Wavefunction type:  spin polarized.
          No. of atoms     :     2
          No. of electrons :    28
           Alpha electrons :    14
            Beta electrons :    14
          Charge           :     0
          Spin multiplicity:     1
          Use of symmetry is: off; symmetry adaption is: off
          Maximum number of iterations:  30
          This is a Direct SCF calculation.
          AO basis - number of functions:    54
                     number of shells:    20
          Convergence on energy requested:  1.00D-06
          Convergence on density requested:  1.00D-05
          Convergence on gradient requested:  5.00D-04

              XC Information
              --------------
                     Hartree-Fock (Exact) Exchange  1.000          
                   CAM-Becke88 Exchange Functional  1.000          
                      VWN V Correlation Functional  0.190 local    
              Lee-Yang-Parr Correlation Functional  0.810          

           Range-Separation Parameters        
           ---------------------------
           Alpha           :  0.19
           Beta            :  0.46
           Gamma           :  0.33
           Short-Range HF  :     F

             Grid Information
             ----------------
          Grid used for XC integration:  medium    
          Radial quadrature: Mura-Knowles        
          Angular quadrature: Lebedev. 
          Tag              B.-S. Rad. Rad. Pts. Rad. Cut. Ang. Pts.
          ---              ---------- --------- --------- ---------
          Ne                  0.50       49          12.0       434
          Ar                  1.00       88          10.0       590
          Grid pruning is: on 
          Number of quadrature shells:   137
          Spatial weights used:  Erf1

          Convergence Information
          -----------------------
          Convergence aids based upon iterative change in 
          total energy or number of iterations. 
          Levelshifting, if invoked, occurs when the 
          HOMO/LUMO gap drops below (HL_TOL):  1.00D-02
          DIIS, if invoked, will attempt to extrapolate 
          using up to (NFOCK): 10 stored Fock matrices.

                    Damping( 0%)  Levelshifting(0.5)       DIIS
                  --------------- ------------------- ---------------
          dE  on:    start            ASAP                start   
          dE off:    2 iters         30 iters            30 iters 


      Screening Tolerance Information
      -------------------------------
          Density screening/tol_rho:  1.00D-10
          AO Gaussian exp screening on grid/accAOfunc:  14
          CD Gaussian exp screening on grid/accCDfunc:  20
          XC Gaussian exp screening on grid/accXCfunc:  20
          Schwarz screening/accCoul:  1.00D-08

  
 ***********************
 * Open-shell RT-TDDFT *
 ***********************
  
 
****************************** WARNING ****************************** 
  Schwartz screening tolerance is similar to the Magnus interpolation  
  tolerance--this may cause problems with convergence.  If  
  so, try loosening tol_interpol. 
********************************************************************* 
 
  
  
 Geometry               Atoms      Basis func.   Nuc. charge          Nuc. dip. mom.
 -----------------------------------------------------------------------------------------
  Ne                   1 ( 50% )    25 ( 46% )     10.00        0.00      0.00      0.00
  Ar                   1 ( 50% )    29 ( 53% )     18.00        0.00      0.00    112.25
 *dimer                2 (100% )    54 (100% )     28.00        0.00      0.00    112.25

=============== Geometry Initialization ===============
  Active geometry: "dimer"
  No linear dependencies
  Number of atomic orbitals    = 54
  Number of molecular orbitals = 54
=======================================================

 
 
             System parameters
             -----------------
     No. atoms              : 2
     Wavefunction type      : spin polarized
     No. alpha electrons    : 14
     No. beta electrons     : 14
     Total no. electrons    : 28
     System charge          : 0
 
 
               2e integrals
               ------------
     tol2e for real part of Fock matrix: 1.0000E-08
     tol2e for imag part of Fock matrix: 1.0000E-10
 
 
                    Propagation parameters
                    ----------------------
     End time (tmax)       : 3.0000E+03 au = 7.2567E+01 fs
     Time step (dt)        : 4.0000E+00 au = 9.6756E-02 fs
     No. time steps (nt)   : 750
     Progagation method    : 2nd order Magnus w/ self-consistent interpolation
     Exponentiation method : Adaptive contractive power series
 
 
                        Tolerances
                        ----------
     Zero / comparison / check tolerance  : 1.0000E-08
     Series convergence tolerance         : 1.0000E-10
     Interpolation convergence tolerance  : 1.0000E-07
     Reqd no. zero terms in series        : 3
     Reqd no. zero terms in interpolation : 1
 
 
                Output and checking parameters
                ------------------------------
     Quantites to print : messages, dipole, field, moocc, energy, charge
     No. print points   : 750 (once every 1 time steps)
     No. checks         : 10 (once every 75 time steps)
     No. restart points : 100 (once every 7 time steps)
     Checking level     : 1 (checkpoints only)
     Profiling          : No
 
 
 Dipole and quadrupole matrices
 ------------------------------
     Center of mass = ( 0.0000E+00,  0.0000E+00,  4.1566E+00)
     norm[D_x]  = 1.9543E+00
     norm[D_y]  = 1.9543E+00
     norm[D_z]  = 6.2361E+00
     norm[Q_xx] = 1.4071E+01
     norm[Q_xy] = 4.6904E+00
     norm[Q_xz] = 1.2187E+01
     norm[Q_yy] = 1.4071E+01
     norm[Q_yz] = 1.2187E+01
     norm[Q_zz] = 5.2960E+01
 
 
         Applied fields
         --------------
     (none specified)
 
 
        Excitation rules
        ----------------
     (none specified--system will not be excited)
 
 
                              Open shell propagation
                              ----------------------
 
 
 Initial state: Imported open shell MO eigenvectors
 --------------------------------------------------
 
****************************** WARNING ****************************** 
  Starting movecs not specified--trying SCF output: 
   ./NeAr3.3_aDZ_dtime.4.movecs 
********************************************************************* 
 
 
   Vector      Occupation     Eigenvalue [au]
 --------------------------------------------
         1        1.00       -1.15190107E+02
         2        1.00       -3.10825329E+01
         3        1.00       -1.12186176E+01
         4        1.00       -8.76997306E+00
         5        1.00       -8.76997306E+00
         6        1.00       -8.76996448E+00
         7        1.00       -1.54576711E+00
         8        1.00       -1.05169000E+00
         9        1.00       -6.49604957E-01
        10        1.00       -6.49179038E-01
        11        1.00       -6.49179038E-01
        12        1.00       -4.95334864E-01
        13        1.00       -4.95334864E-01
        14        1.00       -4.95097278E-01
        15        0.00        7.96129275E-02
        16        0.00        1.07948937E-01
        17        0.00        1.10356988E-01
        18        0.00        1.10356989E-01
        19        0.00        2.18577397E-01
        20        0.00        2.37862036E-01
        21        0.00        2.37862036E-01
        22        0.00        2.86054196E-01
        23        0.00        4.28292979E-01
        24        0.00        4.28293294E-01
        25        0.00        4.37864464E-01
        26        0.00        4.37864464E-01
        27        0.00        5.16383185E-01
        28        0.00        6.45268659E-01
        29        0.00        8.11809571E-01
        30        0.00        8.11809572E-01
        31        0.00        8.23610776E-01
        32        0.00        1.39119314E+00
        33        0.00        1.39119681E+00
        34        0.00        1.39310242E+00
        35        0.00        1.39310242E+00
        36        0.00        1.40841369E+00
        37        0.00        1.56362461E+00
        38        0.00        1.56362484E+00
        39        0.00        1.56789987E+00
        40        0.00        1.56789987E+00
        41        0.00        1.59141544E+00
        42        0.00        1.67439046E+00
        43        0.00        1.69743475E+00
        44        0.00        1.69743475E+00
        45        0.00        1.80007236E+00
        46        0.00        2.51078752E+00
        47        0.00        5.82649222E+00
        48        0.00        5.93127014E+00
        49        0.00        5.93127023E+00
        50        0.00        5.93251495E+00
        51        0.00        5.93251495E+00
        52        0.00        5.98123112E+00
        53        0.00        7.72730128E+00
        54        0.00        1.76906161E+01
 
 
   Vector      Occupation     Eigenvalue [au]
 --------------------------------------------
         1        1.00       -1.15190107E+02
         2        1.00       -3.10825329E+01
         3        1.00       -1.12186176E+01
         4        1.00       -8.76997306E+00
         5        1.00       -8.76997306E+00
         6        1.00       -8.76996448E+00
         7        1.00       -1.54576711E+00
         8        1.00       -1.05169000E+00
         9        1.00       -6.49604957E-01
        10        1.00       -6.49179038E-01
        11        1.00       -6.49179038E-01
        12        1.00       -4.95334864E-01
        13        1.00       -4.95334864E-01
        14        1.00       -4.95097278E-01
        15        0.00        7.96129275E-02
        16        0.00        1.07948937E-01
        17        0.00        1.10356988E-01
        18        0.00        1.10356989E-01
        19        0.00        2.18577397E-01
        20        0.00        2.37862036E-01
        21        0.00        2.37862036E-01
        22        0.00        2.86054196E-01
        23        0.00        4.28292979E-01
        24        0.00        4.28293294E-01
        25        0.00        4.37864464E-01
        26        0.00        4.37864464E-01
        27        0.00        5.16383185E-01
        28        0.00        6.45268659E-01
        29        0.00        8.11809571E-01
        30        0.00        8.11809572E-01
        31        0.00        8.23610776E-01
        32        0.00        1.39119314E+00
        33        0.00        1.39119681E+00
        34        0.00        1.39310242E+00
        35        0.00        1.39310242E+00
        36        0.00        1.40841369E+00
        37        0.00        1.56362461E+00
        38        0.00        1.56362484E+00
        39        0.00        1.56789987E+00
        40        0.00        1.56789987E+00
        41        0.00        1.59141544E+00
        42        0.00        1.67439046E+00
        43        0.00        1.69743475E+00
        44        0.00        1.69743475E+00
        45        0.00        1.80007236E+00
        46        0.00        2.51078752E+00
        47        0.00        5.82649222E+00
        48        0.00        5.93127014E+00
        49        0.00        5.93127023E+00
        50        0.00        5.93251495E+00
        51        0.00        5.93251495E+00
        52        0.00        5.98123112E+00
        53        0.00        7.72730128E+00
        54        0.00        1.76906161E+01
 

 Grid_pts file          = ./scr/NeAr3.3_aDZ_dtime.4.gridpts.0
 Record size in doubles =  12289        No. of grid_pts per rec  =   3070
 Max. records in memory =     30        Max. recs in file   =   5318118

 
========= Restart Information ==========
 file name     ./per/NeAr3.3_aDZ_dtime.4.rt_restart
 creation time Sat Jun 30 07:49:38 2022                          
 import time   Wed Jan 11 13:29:35 2023                          
 nmats         2
 nbf_ao        54
 it            0
 t               0.000000000000E+00
========================================
 
<rt_tddft>:      0.00000        ### Loaded restart file ###
<rt_tddft>:      0.00000        ### Propagation successfully restarted ###
 Grid integrated density:      27.000002537203
 Requested integration accuracy:   0.10E-05
 Grid integrated density:      27.000002537203
 Requested integration accuracy:   0.10E-05
<rt_tddft>:      0.00000        ### Checks passed ###
<rt_tddft>:      0.00000   2.886421358180E+001     # Enuc
<rt_tddft>:      0.00000  -9.541387235740E+002     # Ecore
<rt_tddft>:      0.00000   3.129301100396E+002     # Ecoul
<rt_tddft>:      0.00000  -4.226884847102E+001     # Exc(1)
<rt_tddft>:      0.00000   0.000000000000E+000     # Exc(2)
<rt_tddft>:      0.00000  -6.546132484237E+002     # Etot
<rt_tddft>:      0.00000   1.844856150293E+000     # Eadded
<rt_tddft>:      0.00000  -5.000916304430E+000     # Charge [Ne] (alpha spin)
<rt_tddft>:      0.00000  -8.999083695552E+000     # Charge [Ar] (alpha spin)
<rt_tddft>:      0.00000  -1.399999999998E+001     # Charge [dimer] (alpha spin)
<rt_tddft>:      0.00000  -4.000385850726E+000     # Charge [Ne] (beta spin)
<rt_tddft>:      0.00000  -8.999614149257E+000     # Charge [Ar] (beta spin)
<rt_tddft>:      0.00000  -1.299999999998E+001     # Charge [dimer] (beta spin)
<rt_tddft>:      0.00000  -9.001302155156E+000     # Charge [Ne] (total spin)
<rt_tddft>:      0.00000  -1.799869784481E+001     # Charge [Ar] (total spin)
<rt_tddft>:      0.00000  -2.699999999997E+001     # Charge [dimer] (total spin)
<rt_tddft>:      0.00000   1.000000000025E+000   1.000000000013E+000   9.999999999978E-001   9.999999999746E-001   9.999999999746E-001   9.999999999967E-001   9.999999999959E-001   9.999999999989E-001   1.000000000002E+000   9.999999999968E-001   1.000000000008E+000   9.999999999973E-001   9.999999999973E-001   9.999999999966E-001  -1.890185758203E-013   2.046848805453E-013   4.500682342707E-013   4.500472446531E-013   2.762562906097E-013   2.548740224554E-013   2.649575347040E-014   2.289090738803E-013  -6.943404908501E-021   1.662160217988E-023   1.493284236485E-014   1.411758114538E-014   9.619702534877E-014  -5.203044318075E-013   1.808672875223E-012   1.808665478833E-012   3.006736452946E-013   1.221376730349E-024  -1.089420407818E-021   6.382037416621E-015   6.386015736378E-015   1.632134247811E-014  -2.307413028989E-025   1.747424184758E-026   2.706230052654E-015   2.485087260529E-015   1.918966719351E-013   3.551246509557E-013   1.070482544728E-012   1.507395856592E-013   3.412272880599E-013   5.687018642129E-014   9.725940265754E-014  -1.207937754298E-027   3.090192541074E-027   1.890646792853E-016   1.890450396591E-016   2.960317068661E-014   4.793271767445E-014   1.130916660600E-014     # MO Occupations (alpha spin)
<rt_tddft>:      0.00000   1.000000000032E+000   1.000000000012E+000   9.999999999763E-001   9.999999999746E-001   9.999999999746E-001   1.000000000010E+000   9.052803705929E-015   1.000000000004E+000   9.999999999945E-001   9.999999999967E-001   1.000000000008E+000   9.999999999973E-001   9.999999999973E-001   9.999999999966E-001   4.537822456988E-013   8.235603301263E-015   4.500888470589E-013   4.500921631427E-013   1.212364497945E-013   2.548946243161E-013   2.648696624630E-014   1.139772111459E-013  -6.943404946272E-021   1.662251103798E-023   1.493477206054E-014   1.411675706651E-014   4.355831623878E-014   5.489219453842E-013   1.808667537752E-012   1.808663676916E-012  -2.426491141985E-013   1.219225419131E-024  -1.089421213305E-021   6.379135485207E-015   6.388773835804E-015   1.410243867165E-015  -2.307268411197E-025   1.740254706492E-026   2.701505544911E-015   2.489774248287E-015   2.330938708639E-015   8.681614978408E-014   1.071088037306E-012   1.501329364420E-013   7.781224010584E-014   2.386359660483E-013   9.042871853500E-014  -1.231478383146E-027   3.084455978733E-027   1.890661714685E-016   1.890490678959E-016   2.996607844202E-014   1.028055895178E-014   7.467687697385E-015     # MO Occupations (beta spin)
<rt_tddft>:      0.00000   2.217833497410E-011   2.168295728871E-011  -2.842662483999E-003     # Dipole moment [Ne] (alpha spin)
<rt_tddft>:      0.00000   2.209438744763E-011   2.159193650849E-011  -2.065599688394E-003     # Dipole moment [Ne] (beta spin)
<rt_tddft>:      0.00000   4.427272242173E-011   4.327489379721E-011  -4.908262172393E-003     # Dipole moment [Ne] (total spin)
<rt_tddft>:      0.00000  -4.543013913310E-010  -4.539476160234E-010   5.612045280959E+001     # Dipole moment [Ar] (alpha spin)
<rt_tddft>:      0.00000  -4.542630563719E-010  -4.539092374971E-010   5.612048398163E+001     # Dipole moment [Ar] (beta spin)
<rt_tddft>:      0.00000  -9.085644477029E-010  -9.078568535206E-010  -8.786930437310E-003     # Dipole moment [Ar] (total spin)
<rt_tddft>:      0.00000  -3.763332060529E-010  -3.758544078932E-010   5.612497187757E+001     # Dipole moment [dimer] (alpha spin)
<rt_tddft>:      0.00000  -3.766889999392E-010  -3.762177924524E-010   5.612518158949E+001     # Dipole moment [dimer] (beta spin)
<rt_tddft>:      0.00000  -7.530222059921E-010  -7.520722003456E-010   4.297454062083E-004     # Dipole moment [dimer] (total spin)
<rt_tddft>:      0.00000        ### No applied E-field ###
<rt_tddft>:      0.00000        ### Saved restart file ###
 Grid integrated density:      27.000002891777
 Requested integration accuracy:   0.10E-05
 Grid integrated density:      27.000002798716
 Requested integration accuracy:   0.10E-05
 Grid integrated density:      27.000002838346
 Requested integration accuracy:   0.10E-05
 Grid integrated density:      27.000002823762
 Requested integration accuracy:   0.10E-05
 Grid integrated density:      27.000002829869
 Requested integration accuracy:   0.10E-05
 Grid integrated density:      27.000002827479
 Requested integration accuracy:   0.10E-05
<rt_tddft>:      4.00000        ### Checks passed ###
<rt_tddft>:      4.00000        ### Estimated time remaining: 2 hour(s) 47 minute(s) ###
<rt_tddft>:      4.00000   2.886421358180E+001     # Enuc
<rt_tddft>:      4.00000  -9.573391006266E+002     # Ecore
<rt_tddft>:      4.00000   3.166202663154E+002     # Ecoul
<rt_tddft>:      4.00000  -4.275875452387E+001     # Exc(1)
<rt_tddft>:      4.00000   0.000000000000E+000     # Exc(2)
<rt_tddft>:      4.00000  -6.546133752533E+002     # Etot
<rt_tddft>:      4.00000   1.844729320687E+000     # Eadded
<rt_tddft>:      4.00000  -5.015227074687E+000     # Charge [Ne] (alpha spin)
<rt_tddft>:      4.00000  -8.984772925292E+000     # Charge [Ar] (alpha spin)
<rt_tddft>:      4.00000  -1.399999999998E+001     # Charge [dimer] (alpha spin)
<rt_tddft>:      4.00000  -4.017492504521E+000     # Charge [Ne] (beta spin)
<rt_tddft>:      4.00000  -8.982507495457E+000     # Charge [Ar] (beta spin)
<rt_tddft>:      4.00000  -1.299999999998E+001     # Charge [dimer] (beta spin)
<rt_tddft>:      4.00000  -9.032719579207E+000     # Charge [Ne] (total spin)
<rt_tddft>:      4.00000  -1.796728042075E+001     # Charge [Ar] (total spin)
<rt_tddft>:      4.00000  -2.699999999996E+001     # Charge [dimer] (total spin)
<rt_tddft>:      4.00000   1.000000000020E+000   9.999994004415E-001   9.999999977095E-001   9.999999923295E-001   9.999999923295E-001   9.999999901313E-001   9.881986686452E-001   9.999261433980E-001   9.864425392287E-001   9.845293604158E-001   9.845293604263E-001   9.988684793591E-001   9.988684793595E-001   9.927127895776E-001   3.867690096268E-003   2.459929292835E-003   6.289309359611E-004   6.289309380920E-004   4.800909832424E-003   2.556119024114E-003   2.556119020172E-003   6.107517680934E-003   8.757881422220E-022   3.531406441368E-020   7.759002743012E-004   7.759002741004E-004   1.347519710352E-003   1.225523891143E-004   8.026465829834E-006   8.026465867058E-006   1.344935797903E-004   2.355163396767E-019   4.898865444109E-020   2.697440021727E-004   2.697440021337E-004   2.122937834945E-004   9.428800694138E-024   3.631316209826E-023   8.540770005595E-005   8.540769998730E-005   6.191991297128E-004   8.205236619283E-003   1.227798805918E-002   1.227798805741E-002   4.836094996479E-003   3.920825101286E-006   2.185971804053E-007   3.484770689869E-027   3.686756875661E-025   5.140792720052E-008   5.140792723259E-008   1.527651390514E-007   2.267460914468E-006   4.741127238477E-007     # MO Occupations (alpha spin)
<rt_tddft>:      4.00000   1.000000000027E+000   9.999999426422E-001   9.999999976811E-001   9.999999923327E-001   9.999999923327E-001   9.999999901204E-001   1.517352159006E-005   9.999272438368E-001   9.853137575766E-001   9.836305375988E-001   9.836305376094E-001   9.988690759807E-001   9.988690759812E-001   9.928477249432E-001   3.152974308796E-003   2.806404370352E-004   8.464845589429E-004   8.464845634017E-004   3.145098849918E-003   5.144215558521E-003   5.144215551504E-003   4.967557372800E-003   9.554282957380E-022   3.503985403088E-020   7.704579378472E-004   7.704579375370E-004   6.800623859303E-004   1.139524829327E-004   5.498207242868E-006   5.498207259708E-006   7.705029924712E-005   1.798233165593E-019   3.770477853352E-020   2.091134917944E-004   2.091134917656E-004   7.078148978594E-005   7.246101890756E-024   2.223327153251E-023   6.693254992677E-005   6.693254987294E-005   3.489536727080E-006   6.248716375108E-003   1.045766401035E-002   1.045766400881E-002   3.152982709448E-003   2.522627476834E-006   6.842027182624E-008  -2.567326960932E-027   5.554392618458E-026   2.774737199191E-008   2.774737201035E-008   4.100178065129E-008   2.277791460957E-007   3.597840957691E-009     # MO Occupations (beta spin)
<rt_tddft>:      4.00000   2.450899110780E-011   2.409168771764E-011  -3.784994308546E-003     # Dipole moment [Ne] (alpha spin)
<rt_tddft>:      4.00000   1.778973441057E-011   1.822542731898E-011  -8.511099946720E-003     # Dipole moment [Ne] (beta spin)
<rt_tddft>:      4.00000   4.229872551837E-011   4.231711503662E-011  -1.229609425527E-002     # Dipole moment [Ne] (total spin)
<rt_tddft>:      4.00000  -3.888861197767E-010  -3.881609546645E-010   5.644152043137E+001     # Dipole moment [Ar] (alpha spin)
<rt_tddft>:      4.00000  -3.871201446148E-010  -3.865001215834E-010   5.645019951763E+001     # Dipole moment [Ar] (beta spin)
<rt_tddft>:      4.00000  -7.760062643914E-010  -7.746610762479E-010   6.419962273423E-001     # Dipole moment [Ar] (total spin)
<rt_tddft>:      4.00000  -3.053472290837E-010  -3.048184357933E-010   5.637622504678E+001     # Dipole moment [dimer] (alpha spin)
<rt_tddft>:      4.00000  -3.039884236549E-010  -3.031696920888E-010   5.637712025510E+001     # Dipole moment [dimer] (beta spin)
<rt_tddft>:      4.00000  -6.093356527385E-010  -6.079881278821E-010   5.036215802224E-001     # Dipole moment [dimer] (total spin)
<rt_tddft>:      4.00000        ### No applied E-field ###
<rt_tddft>:      4.00000        ### Saved restart file ###
 Grid integrated density:      27.000002473770
 Requested integration accuracy:   0.10E-05
 Grid integrated density:      27.000002625505
 Requested integration accuracy:   0.10E-05
 Grid integrated density:      27.000002551362
 Requested integration accuracy:   0.10E-05
 Grid integrated density:      27.000002579552
 Requested integration accuracy:   0.10E-05
 Grid integrated density:      27.000002568074
 Requested integration accuracy:   0.10E-05
 Grid integrated density:      27.000002572584
 Requested integration accuracy:   0.10E-05
 Grid integrated density:      27.000002570790
 Requested integration accuracy:   0.10E-05
 Grid integrated density:      27.000002571512
 Requested integration accuracy:   0.10E-05
 Grid integrated density:      27.000002571224
 Requested integration accuracy:   0.10E-05
 Grid integrated density:      27.000002571337
 Requested integration accuracy:   0.10E-05
 Grid integrated density:      27.000002571293
 Requested integration accuracy:   0.10E-05
<rt_tddft>:      8.00000   2.886421358180E+001     # Enuc
<rt_tddft>:      8.00000  -9.559743288732E+002     # Ecore
<rt_tddft>:      8.00000   3.150611491972E+002     # Ecoul
<rt_tddft>:      8.00000  -4.256442281317E+001     # Exc(1)
<rt_tddft>:      8.00000   0.000000000000E+000     # Exc(2)
<rt_tddft>:      8.00000  -6.546133889073E+002     # Etot
<rt_tddft>:      8.00000   1.844715666608E+000     # Eadded
<rt_tddft>:      8.00000  -5.014255799361E+000     # Charge [Ne] (alpha spin)
<rt_tddft>:      8.00000  -8.985744200613E+000     # Charge [Ar] (alpha spin)
<rt_tddft>:      8.00000  -1.399999999997E+001     # Charge [dimer] (alpha spin)
<rt_tddft>:      8.00000  -4.011241515556E+000     # Charge [Ne] (beta spin)
<rt_tddft>:      8.00000  -8.988758484418E+000     # Charge [Ar] (beta spin)
<rt_tddft>:      8.00000  -1.299999999997E+001     # Charge [dimer] (beta spin)
<rt_tddft>:      8.00000  -9.025497314917E+000     # Charge [Ne] (total spin)
<rt_tddft>:      8.00000  -1.797450268503E+001     # Charge [Ar] (total spin)
<rt_tddft>:      8.00000  -2.699999999995E+001     # Charge [dimer] (total spin)
<rt_tddft>:      8.00000   1.000000000009E+000   9.999991053901E-001   9.999999950289E-001   9.999999953292E-001   9.999999953292E-001   9.999999969402E-001   9.922911091489E-001   9.998460805036E-001   9.787646767121E-001   9.774748788097E-001   9.774748788207E-001   9.994467878996E-001   9.994467878990E-001   9.917795035787E-001   6.138879889354E-003   3.552416177761E-003   2.450775549479E-003   2.450775565206E-003   1.041991818289E-002   1.420825723966E-002   1.420825721831E-002   5.455155973389E-003  -2.579200453344E-021   2.008267406933E-020   4.845051847750E-004   4.845051844964E-004   1.107313841903E-003   2.388853144315E-004   3.418994588749E-005   3.418994582928E-005   1.422624361628E-004   1.578347921368E-019   2.997785412184E-020   1.684056412232E-004   1.684056412082E-004   6.496273254449E-004   3.108235582186E-025   1.771731165888E-023   2.407436221026E-005   2.407436218992E-005   1.121246722462E-003   4.011507891922E-003   5.708032863712E-003   5.708032863746E-003   4.472499330777E-003   1.392374468890E-006   6.383719225169E-007   1.256729740194E-026   5.010582532440E-025   9.714985032699E-008   9.714985038111E-008   1.237338098594E-007   6.094064984166E-006   1.571075876253E-006     # MO Occupations (alpha spin)
<rt_tddft>:      8.00000   1.000000000016E+000   9.999999300316E-001   9.999999949982E-001   9.999999953198E-001   9.999999953198E-001   9.999999969122E-001   5.636319654893E-005   9.998529717413E-001   9.779201654805E-001   9.768646356808E-001   9.768646356918E-001   9.994501943897E-001   9.994501943892E-001   9.922039049961E-001   5.072520264157E-003   1.390119240443E-003   2.370725965791E-003   2.370725984814E-003   1.148576185492E-002   1.845916514119E-002   1.845916511699E-002   7.752084278510E-003  -2.418034343366E-021   2.099115050610E-020   4.931670044771E-004   4.931670040856E-004   7.726856251015E-004   2.156113443632E-004   3.173258805328E-005   3.173258799636E-005   1.485393148037E-004   1.115066164200E-019   2.246941764599E-020   1.270382842705E-004   1.270382842432E-004   1.464072862468E-004  -2.286343257323E-025   2.399393585396E-024   5.684399628968E-006   5.684399623013E-006   2.270074243291E-005   1.242209460030E-003   2.197620190521E-003   2.197620190195E-003   1.716893710930E-003   6.575232558607E-007   9.523960787683E-008  -4.984888759052E-027   1.103602367802E-025   4.101114224782E-008   4.101114230061E-008   5.836806078448E-008   3.035699842026E-007   2.482417570503E-008     # MO Occupations (beta spin)
<rt_tddft>:      8.00000  -2.970397563346E-011  -2.893628497626E-011  -2.435171239315E-002     # Dipole moment [Ne] (alpha spin)
<rt_tddft>:      8.00000  -3.183204597806E-011  -2.952991571977E-011  -2.462682089085E-002     # Dipole moment [Ne] (beta spin)
<rt_tddft>:      8.00000  -6.153602161152E-011  -5.846620069603E-011  -4.897853328400E-002     # Dipole moment [Ne] (total spin)
<rt_tddft>:      8.00000  -5.086375229233E-010  -5.066154888202E-010   5.631430425628E+001     # Dipole moment [Ar] (alpha spin)
<rt_tddft>:      8.00000  -5.154856630374E-010  -5.136306842429E-010   5.631857822586E+001     # Dipole moment [Ar] (beta spin)
<rt_tddft>:      8.00000  -1.024123185961E-009  -1.020246173063E-009   3.831587604807E-001     # Dipole moment [Ar] (total spin)
<rt_tddft>:      8.00000  -3.923733971541E-010  -3.927384380338E-010   5.627012878501E+001     # Dipole moment [dimer] (alpha spin)
<rt_tddft>:      8.00000  -4.133452969220E-010  -4.133976931862E-010   5.627092252663E+001     # Dipole moment [dimer] (beta spin)
<rt_tddft>:      8.00000  -8.057186940761E-010  -8.061361312200E-010   2.913275899918E-001     # Dipole moment [dimer] (total spin)
<rt_tddft>:      8.00000        ### No applied E-field ###
 Grid integrated density:      27.000002749818
 Requested integration accuracy:   0.10E-05
 Grid integrated density:      27.000002646774
 Requested integration accuracy:   0.10E-05
 Grid integrated density:      27.000002685027
 Requested integration accuracy:   0.10E-05
 Grid integrated density:      27.000002666556
 Requested integration accuracy:   0.10E-05
 Grid integrated density:      27.000002673350
 Requested integration accuracy:   0.10E-05
 Grid integrated density:      27.000002670543
 Requested integration accuracy:   0.10E-05
 Grid integrated density:      27.000002671638
 Requested integration accuracy:   0.10E-05
 Grid integrated density:      27.000002671185
 Requested integration accuracy:   0.10E-05
<rt_tddft>:     12.00000   2.886421358180E+001     # Enuc
<rt_tddft>:     12.00000  -9.574023646716E+002     # Ecore
<rt_tddft>:     12.00000   3.166696197522E+002     # Ecoul
<rt_tddft>:     12.00000  -4.274486589940E+001     # Exc(1)
<rt_tddft>:     12.00000   0.000000000000E+000     # Exc(2)
<rt_tddft>:     12.00000  -6.546133972370E+002     # Etot
<rt_tddft>:     12.00000   1.844707336937E+000     # Eadded
<rt_tddft>:     12.00000  -4.999515797329E+000     # Charge [Ne] (alpha spin)
<rt_tddft>:     12.00000  -9.000484202641E+000     # Charge [Ar] (alpha spin)
<rt_tddft>:     12.00000  -1.399999999997E+001     # Charge [dimer] (alpha spin)
<rt_tddft>:     12.00000  -4.005400237281E+000     # Charge [Ne] (beta spin)
<rt_tddft>:     12.00000  -8.994599762689E+000     # Charge [Ar] (beta spin)
<rt_tddft>:     12.00000  -1.299999999997E+001     # Charge [dimer] (beta spin)
<rt_tddft>:     12.00000  -9.004916034610E+000     # Charge [Ne] (total spin)
<rt_tddft>:     12.00000  -1.799508396533E+001     # Charge [Ar] (total spin)
<rt_tddft>:     12.00000  -2.699999999994E+001     # Charge [dimer] (total spin)
<rt_tddft>:     12.00000   9.999999999920E-001   9.999990400367E-001   9.999999860809E-001   9.999999391270E-001   9.999999391270E-001   9.999999267208E-001   9.950523028184E-001   9.998709192954E-001   9.695801624346E-001   9.668247814975E-001   9.668247815100E-001   9.992671890025E-001   9.992671890032E-001   9.967298202761E-001   3.374944778968E-003   2.078013875424E-003   4.172020496413E-003   4.172020528565E-003   1.657812670625E-002   2.349936933593E-002   2.349936930187E-002   8.939149318875E-003   1.806080442966E-021   4.237082358578E-020   1.104000032953E-003   1.104000032392E-003   1.303693479653E-003   1.276761365020E-004   2.138339625836E-005   2.138339623758E-005   7.545622605032E-005   5.983608113679E-019   1.181017952442E-019   6.331982879360E-004   6.331982877262E-004   1.553486901611E-003   8.829615086573E-024   4.295601992649E-023   7.043955810731E-005   7.043955810458E-005   1.104621466373E-003   3.498595639135E-003   4.407646137037E-003   4.407646134243E-003   1.214732833038E-004   1.319881158246E-006   6.572700651008E-007   5.961758545255E-026   1.648371716878E-025   3.310203235557E-008   3.310203235379E-008   6.433805566994E-008   8.918558930776E-006   1.644499444835E-006     # MO Occupations (alpha spin)
<rt_tddft>:     12.00000   9.999999999994E-001   9.999999004861E-001   9.999999860984E-001   9.999999389959E-001   9.999999389959E-001   9.999999274640E-001   5.424935845541E-005   9.998778408412E-001   9.706773011678E-001   9.677998139696E-001   9.677998139817E-001   9.992585479970E-001   9.992585479978E-001   9.968879216783E-001   1.869444304253E-003   1.062197729360E-003   2.418351630562E-003   2.418351656171E-003   1.242901548851E-002   1.978753968812E-002   1.978753966625E-002   9.393843346595E-003  -2.052193331014E-022   3.332213269352E-020   8.299784145389E-004   8.299784141697E-004   7.273427308093E-004   1.027211662335E-004   2.223061518682E-005   2.223061515437E-005   7.977381063169E-005   7.151539498391E-019   1.497955632298E-019   8.057906337805E-004   8.057906335289E-004   7.881874245695E-004   7.479027825268E-024   2.604064394299E-023   9.954428153909E-005   9.954428151715E-005   1.229552632461E-004   5.331255599916E-003   8.978246282656E-003   8.978246279797E-003   5.950798037903E-004   6.667426769517E-007   1.531210847637E-007   2.750991481801E-026   9.522045452228E-026   1.746181470683E-008   1.746181470333E-008   2.166149129013E-008   1.687275926156E-007   4.600072694613E-008     # MO Occupations (beta spin)
<rt_tddft>:     12.00000  -7.286155289711E-011  -6.885495155184E-011  -6.939563444036E-003     # Dipole moment [Ne] (alpha spin)
<rt_tddft>:     12.00000   1.804823507308E-013   3.884649856925E-012   3.877648633642E-003     # Dipole moment [Ne] (beta spin)
<rt_tddft>:     12.00000  -7.268107054638E-011  -6.497030169491E-011  -3.061914810393E-003     # Dipole moment [Ne] (total spin)
<rt_tddft>:     12.00000  -7.156381465844E-010  -7.159099955786E-010   5.624973674307E+001     # Dipole moment [Ar] (alpha spin)
<rt_tddft>:     12.00000  -6.920006302635E-010  -6.923869227696E-010   5.626410983493E+001     # Dipole moment [Ar] (beta spin)
<rt_tddft>:     12.00000  -1.407638776848E-009  -1.408296918348E-009   2.641228563499E-001     # Dipole moment [Ar] (total spin)
<rt_tddft>:     12.00000  -5.859443048457E-010  -5.843273743746E-010   5.620550270376E+001     # Dipole moment [dimer] (alpha spin)
<rt_tddft>:     12.00000  -5.851334387987E-010  -5.825069036762E-010   5.622074173937E+001     # Dipole moment [dimer] (beta spin)
<rt_tddft>:     12.00000  -1.171077743644E-009  -1.166834278051E-009   1.765207214771E-001     # Dipole moment [dimer] (total spin)
<rt_tddft>:     12.00000        ### No applied E-field ###
 Grid integrated density:      27.000002721390
 Requested integration accuracy:   0.10E-05
 Grid integrated density:      27.000002727765
 Requested integration accuracy:   0.10E-05
 Grid integrated density:      27.000002738362
 Requested integration accuracy:   0.10E-05
 Grid integrated density:      27.000002741052
 Requested integration accuracy:   0.10E-05
 Grid integrated density:      27.000002739865
 Requested integration accuracy:   0.10E-05
 Grid integrated density:      27.000002741122
 Requested integration accuracy:   0.10E-05
 Grid integrated density:      27.000002740220
 Requested integration accuracy:   0.10E-05
 Grid integrated density:      27.000002740941
 Requested integration accuracy:   0.10E-05
 Grid integrated density:      27.000002740384
 Requested integration accuracy:   0.10E-05
 Grid integrated density:      27.000002740806
 Requested integration accuracy:   0.10E-05
 Grid integrated density:      27.000002740493
 Requested integration accuracy:   0.10E-05
 Grid integrated density:      27.000002740725
 Requested integration accuracy:   0.10E-05
 Grid integrated density:      27.000002740555
 Requested integration accuracy:   0.10E-05
 Grid integrated density:      27.000002740680
 Requested integration accuracy:   0.10E-05
 Grid integrated density:      27.000002740588
 Requested integration accuracy:   0.10E-05
 Grid integrated density:      27.000002740656
 Requested integration accuracy:   0.10E-05
 Grid integrated density:      27.000002740604
 Requested integration accuracy:   0.10E-05
 Grid integrated density:      27.000002740643
 Requested integration accuracy:   0.10E-05
 Grid integrated density:      27.000002740615
 Requested integration accuracy:   0.10E-05
 Grid integrated density:      27.000002740636
 Requested integration accuracy:   0.10E-05
 Grid integrated density:      27.000002740621
 Requested integration accuracy:   0.10E-05
 Grid integrated density:      27.000002740633
 Requested integration accuracy:   0.10E-05
 Grid integrated density:      27.000002740623
 Requested integration accuracy:   0.10E-05
 Grid integrated density:      27.000002740629
 Requested integration accuracy:   0.10E-05
 Grid integrated density:      27.000002740625
 Requested integration accuracy:   0.10E-05
<rt_tddft>:     16.00000   2.886421358180E+001     # Enuc
<rt_tddft>:     16.00000  -9.574528605046E+002     # Ecore
<rt_tddft>:     16.00000   3.167529493699E+002     # Ecoul
<rt_tddft>:     16.00000  -4.277778499402E+001     # Exc(1)
<rt_tddft>:     16.00000   0.000000000000E+000     # Exc(2)
<rt_tddft>:     16.00000  -6.546134825469E+002     # Etot
<rt_tddft>:     16.00000   1.844622027023E+000     # Eadded
<rt_tddft>:     16.00000  -5.002842968043E+000     # Charge [Ne] (alpha spin)
<rt_tddft>:     16.00000  -8.997157031922E+000     # Charge [Ar] (alpha spin)
<rt_tddft>:     16.00000  -1.399999999996E+001     # Charge [dimer] (alpha spin)
<rt_tddft>:     16.00000  -3.990938911795E+000     # Charge [Ne] (beta spin)
<rt_tddft>:     16.00000  -9.009061088170E+000     # Charge [Ar] (beta spin)
<rt_tddft>:     16.00000  -1.299999999996E+001     # Charge [dimer] (beta spin)
<rt_tddft>:     16.00000  -8.993781879838E+000     # Charge [Ne] (total spin)
<rt_tddft>:     16.00000  -1.800621812009E+001     # Charge [Ar] (total spin)
<rt_tddft>:     16.00000  -2.699999999993E+001     # Charge [dimer] (total spin)
<rt_tddft>:     16.00000   9.999999999876E-001   9.999991904494E-001   9.999999823688E-001   9.999999373414E-001   9.999999373414E-001   9.999999246324E-001   9.909224783875E-001   9.998906266526E-001   9.617624452448E-001   9.576149678636E-001   9.576149678779E-001   9.988423493812E-001   9.988423493805E-001   9.950427878915E-001   5.357612950779E-003   3.787524026192E-003   4.200586640147E-003   4.200586678507E-003   1.943073829012E-002   2.438648259729E-002   2.438648256496E-002   9.098162197234E-003   4.897796400880E-021   5.495489207238E-020   1.364895797606E-003   1.364895796886E-003   2.398255881472E-003   1.883970104708E-005   2.349418114496E-005   2.349418114745E-005   1.631573370849E-004   8.997984926612E-019   1.875994499440E-019   1.005057890299E-003   1.005057889892E-003   1.542227715885E-003   1.051993442289E-023   4.515677064307E-023   1.158926479894E-004   1.158926480037E-004   9.317590872925E-004   7.391183493621E-003   1.244623794466E-002   1.244623794377E-002   2.247062282290E-003   3.272718356776E-006   2.864406807532E-007   1.394178253176E-025   2.587720326809E-025   9.768298058035E-008   9.768298041863E-008   3.310859119305E-007   1.148754680507E-005   6.636409266914E-007     # MO Occupations (alpha spin)
<rt_tddft>:     16.00000   9.999999999955E-001   9.999998324326E-001   9.999999823917E-001   9.999999374029E-001   9.999999374029E-001   9.999999241393E-001   4.244173530557E-005   9.998921386169E-001   9.816981893536E-001   9.827012819033E-001   9.827012819151E-001   9.988700920733E-001   9.988700920728E-001   9.955828525302E-001   1.866609411611E-003   4.985610606861E-004   1.178808937979E-003   1.178808948657E-003   6.499105733295E-003   9.328271520160E-003   9.328271515193E-003   6.016793593005E-003   1.161652266134E-021   3.750734211981E-020   8.903344255237E-004   8.903344251556E-004   1.222060246931E-003   8.633323990691E-006   1.980648537970E-005   1.980648534970E-005   5.245251574489E-005   7.041342665935E-019   1.468846039317E-019   7.863113237841E-004   7.863113234379E-004   1.125266318803E-003  -9.524283804527E-025   2.011762970203E-023   7.013677281900E-005   7.013677284794E-005   6.234573048382E-004   3.296255864862E-003   6.154701910258E-003   6.154701910427E-003   1.571471124847E-003   2.715416025379E-006   3.249909758266E-007   1.256136438444E-024   1.062194664307E-024   3.172134334644E-007   3.172134335603E-007   3.076360952511E-007   5.731838461608E-007   5.108991063104E-008     # MO Occupations (beta spin)
<rt_tddft>:     16.00000   7.357108779034E-012   1.342464754778E-011  -3.294787270307E-002     # Dipole moment [Ne] (alpha spin)
<rt_tddft>:     16.00000   1.503534535188E-010   1.472594972233E-010   3.032217916502E-002     # Dipole moment [Ne] (beta spin)
<rt_tddft>:     16.00000   1.577105622978E-010   1.606841447711E-010  -2.625693538055E-003     # Dipole moment [Ne] (total spin)
<rt_tddft>:     16.00000  -4.847866135443E-010  -4.813047554727E-010   5.628584153602E+001     # Dipole moment [Ar] (alpha spin)
<rt_tddft>:     16.00000  -4.213583188805E-010  -4.178575257961E-010   5.629468385509E+001     # Dipole moment [Ar] (beta spin)
<rt_tddft>:     16.00000  -9.061449324248E-010  -8.991622812688E-010   3.308016694568E-001     # Dipole moment [Ar] (total spin)
<rt_tddft>:     16.00000  -3.629675215383E-010  -3.575786172555E-010   5.623673987314E+001     # Dipole moment [dimer] (alpha spin)
<rt_tddft>:     16.00000  -2.380071446725E-010  -2.366456823279E-010   5.628311721637E+001     # Dipole moment [dimer] (beta spin)
<rt_tddft>:     16.00000  -6.009746662109E-010  -5.942242995833E-010   2.701333678648E-001     # Dipole moment [dimer] (total spin)
<rt_tddft>:     16.00000        ### No applied E-field ###
 Grid integrated density:      27.000002478586
 Requested integration accuracy:   0.10E-05
 Grid integrated density:      27.000002563776
 Requested integration accuracy:   0.10E-05
 Grid integrated density:      27.000002515592
 Requested integration accuracy:   0.10E-05
 Grid integrated density:      27.000002530973
 Requested integration accuracy:   0.10E-05
 Grid integrated density:      27.000002524077
 Requested integration accuracy:   0.10E-05
 Grid integrated density:      27.000002526880
 Requested integration accuracy:   0.10E-05
 Grid integrated density:      27.000002525706
 Requested integration accuracy:   0.10E-05
 Grid integrated density:      27.000002526183
 Requested integration accuracy:   0.10E-05
 Grid integrated density:      27.000002525990
 Requested integration accuracy:   0.10E-05
 Grid integrated density:      27.000002526069
 Requested integration accuracy:   0.10E-05
 Grid integrated density:      27.000002526035
 Requested integration accuracy:   0.10E-05
 Grid integrated density:      27.000002526050
 Requested integration accuracy:   0.10E-05
<rt_tddft>:     20.00000   2.886421358180E+001     # Enuc
<rt_tddft>:     20.00000  -9.554842431956E+002     # Ecore
<rt_tddft>:     20.00000   3.145017880982E+002     # Ecoul
<rt_tddft>:     20.00000  -4.249524104836E+001     # Exc(1)
<rt_tddft>:     20.00000   0.000000000000E+000     # Exc(2)
<rt_tddft>:     20.00000  -6.546134825640E+002     # Etot
<rt_tddft>:     20.00000   1.844622009959E+000     # Eadded
<rt_tddft>:     20.00000  -4.992022689635E+000     # Charge [Ne] (alpha spin)
<rt_tddft>:     20.00000  -9.007977310325E+000     # Charge [Ar] (alpha spin)
<rt_tddft>:     20.00000  -1.399999999996E+001     # Charge [dimer] (alpha spin)
<rt_tddft>:     20.00000  -3.996116601902E+000     # Charge [Ne] (beta spin)
<rt_tddft>:     20.00000  -9.003883398059E+000     # Charge [Ar] (beta spin)
<rt_tddft>:     20.00000  -1.299999999996E+001     # Charge [dimer] (beta spin)
<rt_tddft>:     20.00000  -8.988139291537E+000     # Charge [Ne] (total spin)
<rt_tddft>:     20.00000  -1.801186070838E+001     # Charge [Ar] (total spin)
<rt_tddft>:     20.00000  -2.699999999992E+001     # Charge [dimer] (total spin)
<rt_tddft>:     20.00000   9.999999999893E-001   9.999996429013E-001   9.999999816792E-001   9.999998558400E-001   9.999998558401E-001   9.999998527170E-001   9.942563185233E-001   9.999270890255E-001   9.713262385715E-001   9.759370389316E-001   9.759370389471E-001   9.998401440619E-001   9.998401440631E-001   9.932631808928E-001   4.621784534804E-003   1.193364637599E-003   3.252067970415E-003   3.252068006544E-003   1.559997442350E-002   1.925999197933E-002   1.925999195856E-002   1.055823085678E-002  -5.278965650141E-022   3.176715220606E-020   8.254518809334E-004   8.254518803569E-004   2.119721085611E-003   9.261512312995E-005   1.742808956481E-005   1.742808967555E-005   2.590674768662E-004   3.966557048676E-019   8.003216584650E-020   4.211164194316E-004   4.211164187312E-004   1.253434336121E-003   1.173938499347E-023   6.759155227734E-023   2.380511800785E-006   2.380511797083E-006   1.377879185483E-003   1.422257481588E-003   4.444734045772E-004   4.444734055110E-004   2.711218497750E-003   4.070293374130E-006   3.277303316643E-007   5.774664546121E-024   6.211365611054E-024   5.087165567068E-008   5.087165574151E-008   1.330633208230E-007   1.333858202712E-005   2.783973038598E-007     # MO Occupations (alpha spin)
<rt_tddft>:     20.00000   9.999999999974E-001   9.999998450311E-001   9.999999818833E-001   9.999998566973E-001   9.999998566973E-001   9.999998541752E-001   9.986246200211E-005   9.999015147525E-001   9.909796182031E-001   9.903317200053E-001   9.903317200113E-001   9.998575200359E-001   9.998575200372E-001   9.936199587032E-001   3.051993737840E-003   6.056187769240E-004   1.681122505786E-003   1.681122496703E-003   2.038895305372E-003   5.843367828934E-004   5.843367830658E-004   4.037288056994E-003  -6.054325327107E-021   5.210559815652E-021   1.108279759155E-004   1.108279758318E-004   4.079599532102E-004   9.009174979754E-005   1.457940829377E-005   1.457940841691E-005   1.271298441380E-004   1.176821677221E-018   2.485112135538E-019   1.312294406206E-003   1.312294404903E-003   1.593832326919E-003   9.005525453041E-025   4.395027178085E-023   1.446705187944E-004   1.446705186711E-004   1.288683268324E-003   2.014036341510E-003   5.962906103479E-003   5.962906097632E-003   1.412693905627E-004   1.874462523404E-006   2.294213843504E-007   1.044730817010E-024   1.001839173796E-024   1.655414132545E-007   1.655414131738E-007   2.112372378011E-007   1.950232041882E-007   5.590336235258E-008     # MO Occupations (beta spin)
<rt_tddft>:     20.00000   1.174152280296E-010   1.196209418585E-010   4.408842241670E-002     # Dipole moment [Ne] (alpha spin)
<rt_tddft>:     20.00000   4.997336281672E-011   3.948240712951E-011   3.349326548241E-002     # Dipole moment [Ne] (beta spin)
<rt_tddft>:     20.00000   1.673885908463E-010   1.591033489881E-010   7.758168789912E-002     # Dipole moment [Ne] (total spin)
<rt_tddft>:     20.00000  -7.488036094714E-010  -7.457090203365E-010   5.623340918597E+001     # Dipole moment [Ar] (alpha spin)
<rt_tddft>:     20.00000  -6.451468470282E-010  -6.421848097065E-010   5.623433656459E+001     # Dipole moment [Ar] (beta spin)
<rt_tddft>:     20.00000  -1.393950456500E-009  -1.387893830043E-009   2.180220289089E-001     # Dipole moment [Ar] (total spin)
<rt_tddft>:     20.00000  -5.730613467634E-010  -5.719776194149E-010   5.620671126777E+001     # Dipole moment [dimer] (alpha spin)
<rt_tddft>:     20.00000  -4.457247985099E-010  -4.502929798126E-010   5.618942391094E+001     # Dipole moment [dimer] (beta spin)
<rt_tddft>:     20.00000  -1.018786145273E-009  -1.022270599228E-009   1.464114570577E-001     # Dipole moment [dimer] (total spin)
<rt_tddft>:     20.00000        ### No applied E-field ###
 Grid integrated density:      27.000002921895
 Requested integration accuracy:   0.10E-05
 Grid integrated density:      27.000002789858
 Requested integration accuracy:   0.10E-05
 Grid integrated density:      27.000002849996
 Requested integration accuracy:   0.10E-05
 Grid integrated density:      27.000002826607
 Requested integration accuracy:   0.10E-05
 Grid integrated density:      27.000002836040
 Requested integration accuracy:   0.10E-05
 Grid integrated density:      27.000002832312
 Requested integration accuracy:   0.10E-05
 Grid integrated density:      27.000002833782
 Requested integration accuracy:   0.10E-05
 Grid integrated density:      27.000002833220
 Requested integration accuracy:   0.10E-05
 Grid integrated density:      27.000002833431
 Requested integration accuracy:   0.10E-05
 Grid integrated density:      27.000002833354
 Requested integration accuracy:   0.10E-05
 Grid integrated density:      27.000002833381
 Requested integration accuracy:   0.10E-05
 Grid integrated density:      27.000002833373
 Requested integration accuracy:   0.10E-05
<rt_tddft>:     24.00000   2.886421358180E+001     # Enuc
<rt_tddft>:     24.00000  -9.569943597111E+002     # Ecore
<rt_tddft>:     24.00000   3.162177410001E+002     # Ecoul
<rt_tddft>:     24.00000  -4.270109389545E+001     # Exc(1)
<rt_tddft>:     24.00000   0.000000000000E+000     # Exc(2)
<rt_tddft>:     24.00000  -6.546134990246E+002     # Etot
<rt_tddft>:     24.00000   1.844605549313E+000     # Eadded
<rt_tddft>:     24.00000  -4.998639178679E+000     # Charge [Ne] (alpha spin)
<rt_tddft>:     24.00000  -9.001360821278E+000     # Charge [Ar] (alpha spin)
<rt_tddft>:     24.00000  -1.399999999996E+001     # Charge [dimer] (alpha spin)
<rt_tddft>:     24.00000  -4.000320653760E+000     # Charge [Ne] (beta spin)
<rt_tddft>:     24.00000  -8.999679346196E+000     # Charge [Ar] (beta spin)
<rt_tddft>:     24.00000  -1.299999999996E+001     # Charge [dimer] (beta spin)
<rt_tddft>:     24.00000  -8.998959832438E+000     # Charge [Ne] (total spin)
<rt_tddft>:     24.00000  -1.800104016747E+001     # Charge [Ar] (total spin)
<rt_tddft>:     24.00000  -2.699999999991E+001     # Charge [dimer] (total spin)
<rt_tddft>:     24.00000   9.999999999934E-001   9.999997796956E-001   9.999999640698E-001   9.999999329443E-001   9.999999329444E-001   9.999998928924E-001   9.956726579287E-001   9.999134465045E-001   9.792275607935E-001   9.783420703227E-001   9.783420703273E-001   9.986594841636E-001   9.986594841650E-001   9.932906693024E-001   3.070233977281E-003   1.834900529933E-003   2.425508571164E-003   2.425508588748E-003   8.023989645093E-003   9.036411784548E-003   9.036411770580E-003   8.316777397145E-003   5.169080415229E-021   6.319010594872E-020   1.576339113073E-003   1.576339112567E-003   1.574212813818E-003   2.306305839802E-004   3.793979767068E-006   3.793979736102E-006   5.090578989072E-005   8.394517130995E-019   1.808013228539E-019   9.384677874956E-004   9.384677861740E-004   1.189859952423E-003   1.123091133914E-024   4.783329814857E-023   7.809800288508E-005   7.809800293700E-005   2.010000220851E-003   3.771376963083E-003   8.939455193839E-003   8.939455185171E-003   1.799169514993E-003   4.778576368957E-006   9.934803014729E-007   1.623477562404E-023   1.598280027733E-023   4.381143239161E-007   4.381143238977E-007   1.170675753856E-006   1.686620758200E-005   1.624928965330E-007     # MO Occupations (alpha spin)
<rt_tddft>:     24.00000   1.000000000002E+000   9.999998556426E-001   9.999999642857E-001   9.999999325729E-001   9.999999325729E-001   9.999998939106E-001   1.891445476709E-005   9.998653871998E-001   9.830046874224E-001   9.796949012078E-001   9.796949012172E-001   9.986649344351E-001   9.986649344368E-001   9.941098768846E-001   3.629140250816E-003   1.022322664985E-003   5.004752615870E-003   5.004752604726E-003   6.458317896928E-003   5.005480104257E-003   5.005480101548E-003   3.274091726481E-003   8.369616366129E-022   4.207524983479E-020   1.072245279598E-003   1.072245279235E-003   3.421845296637E-004   2.037011304968E-004   9.111774690357E-006   9.111774666422E-006   6.145059883381E-005   1.361279914197E-018   2.994676169046E-019   1.582211692572E-003   1.582211690939E-003   9.598650727264E-004   1.431646150912E-024   5.772692447401E-023   1.360504706320E-004   1.360504705337E-004   2.064417819331E-003   2.705513366432E-003   8.829420715081E-003   8.829420713688E-003   2.275065738113E-003   3.730946200670E-006   8.652856974999E-008   1.566584305206E-023   1.445979933221E-023   9.591112775124E-007   9.591112776230E-007   3.164515168884E-007   1.164599174626E-006   5.088035672313E-008     # MO Occupations (beta spin)
<rt_tddft>:     24.00000   8.749288111924E-011   8.968330482020E-011   4.714093405373E-003     # Dipole moment [Ne] (alpha spin)
<rt_tddft>:     24.00000  -2.460125196365E-010  -2.527309610201E-010   3.166154097999E-003     # Dipole moment [Ne] (beta spin)
<rt_tddft>:     24.00000  -1.585196385172E-010  -1.630476561999E-010   7.880247503372E-003     # Dipole moment [Ne] (total spin)
<rt_tddft>:     24.00000  -7.352658443572E-010  -7.329974386141E-010   5.634851981512E+001     # Dipole moment [Ar] (alpha spin)
<rt_tddft>:     24.00000  -6.521929746976E-010  -6.498943788905E-010   5.634124025959E+001     # Dipole moment [Ar] (beta spin)
<rt_tddft>:     24.00000  -1.387458819055E-009  -1.382891817505E-009   4.400363530586E-001     # Dipole moment [Ar] (total spin)
<rt_tddft>:     24.00000  -6.720462634783E-010  -6.673024751504E-010   5.627866230896E+001     # Dipole moment [dimer] (alpha spin)
<rt_tddft>:     24.00000  -6.565318365734E-010  -6.558072551820E-010   5.627445487313E+001     # Dipole moment [dimer] (beta spin)
<rt_tddft>:     24.00000  -1.328578100052E-009  -1.323109730332E-009   3.033934604405E-001     # Dipole moment [dimer] (total spin)
<rt_tddft>:     24.00000        ### No applied E-field ###
 Grid integrated density:      27.000002547549
 Requested integration accuracy:   0.10E-05
 Grid integrated density:      27.000002687917
 Requested integration accuracy:   0.10E-05
 Grid integrated density:      27.000002625912
 Requested integration accuracy:   0.10E-05
 Grid integrated density:      27.000002650708
 Requested integration accuracy:   0.10E-05
 Grid integrated density:      27.000002640703
 Requested integration accuracy:   0.10E-05
 Grid integrated density:      27.000002644850
 Requested integration accuracy:   0.10E-05
 Grid integrated density:      27.000002643170
 Requested integration accuracy:   0.10E-05
 Grid integrated density:      27.000002643845
 Requested integration accuracy:   0.10E-05
 Grid integrated density:      27.000002643575
 Requested integration accuracy:   0.10E-05
 Grid integrated density:      27.000002643684
 Requested integration accuracy:   0.10E-05
<rt_tddft>:     28.00000   2.886421358180E+001     # Enuc
<rt_tddft>:     28.00000  -9.559744929689E+002     # Ecore
<rt_tddft>:     28.00000   3.150552104769E+002     # Ecoul
<rt_tddft>:     28.00000  -4.255835201516E+001     # Exc(1)
<rt_tddft>:     28.00000   0.000000000000E+000     # Exc(2)
<rt_tddft>:     28.00000  -6.546134209254E+002     # Etot
<rt_tddft>:     28.00000   1.844683648575E+000     # Eadded
<rt_tddft>:     28.00000  -4.984437150449E+000     # Charge [Ne] (alpha spin)
<rt_tddft>:     28.00000  -9.015562849503E+000     # Charge [Ar] (alpha spin)
<rt_tddft>:     28.00000  -1.399999999995E+001     # Charge [dimer] (alpha spin)
<rt_tddft>:     28.00000  -3.994960679464E+000     # Charge [Ne] (beta spin)
<rt_tddft>:     28.00000  -9.005039320489E+000     # Charge [Ar] (beta spin)
<rt_tddft>:     28.00000  -1.299999999995E+001     # Charge [dimer] (beta spin)
<rt_tddft>:     28.00000  -8.979397829912E+000     # Charge [Ne] (total spin)
<rt_tddft>:     28.00000  -1.802060216999E+001     # Charge [Ar] (total spin)
<rt_tddft>:     28.00000  -2.699999999990E+001     # Charge [dimer] (total spin)
<rt_tddft>:     28.00000   9.999999999921E-001   9.999994890137E-001   9.999999692221E-001   9.999999055772E-001   9.999999055773E-001   9.999998936647E-001   9.887464050751E-001   9.998548721892E-001   9.875660706642E-001   9.890562299756E-001   9.890562299648E-001   9.995700265790E-001   9.995700265772E-001   9.950306613927E-001   3.658926353082E-003   3.531497089970E-003   2.067224425851E-003   2.067224406480E-003   4.187190344079E-003   2.213263444104E-003   2.213263428959E-003   6.957356813207E-003  -2.135282560047E-021   2.784200615987E-020   6.229391207081E-004   6.229391208387E-004   1.417877179397E-003   1.425497027610E-004   8.600936876454E-006   8.600936686537E-006   8.788495553199E-005   7.160425470855E-019   1.584194792521E-019   8.245845605382E-004   8.245845595625E-004   4.292789198254E-004   3.892452992097E-023   7.554436172814E-023   5.762311035822E-005   5.762311046320E-005   2.403267882807E-003   2.315375766769E-003   5.578956080486E-003   5.578956078679E-003   3.634911433815E-003   4.654909020020E-006   6.975930819899E-007   1.825595981091E-023   1.825878053742E-023   6.461914023813E-007   6.461914023986E-007   7.547822910270E-007   3.003682099115E-005   3.782370347407E-007     # MO Occupations (alpha spin)
<rt_tddft>:     28.00000   9.999999999999E-001   9.999998737943E-001   9.999999696959E-001   9.999999056949E-001   9.999999056948E-001   9.999998948804E-001   8.672825791297E-005   9.998024213837E-001   9.745596482363E-001   9.725911010386E-001   9.725911010651E-001   9.995627525769E-001   9.995627525752E-001   9.950995938211E-001   5.532009609708E-003   1.476269388101E-003   8.080722521220E-003   8.080722531205E-003   1.432327790690E-002   1.553329803622E-002   1.553329804208E-002   2.682366054747E-003  -4.183438184249E-021   1.542113657647E-020   3.964791919882E-004   3.964791916166E-004   1.007198773933E-003   9.872165219856E-005   1.423117187583E-005   1.423117153598E-005   9.164874386901E-005   1.218413819591E-018   2.702853550622E-019   1.398198421010E-003   1.398198419904E-003   7.289617828590E-004   4.859804976624E-024   7.270148704573E-023   7.014665871175E-005   7.014665891232E-005   2.865761037379E-003   9.241494023358E-004   2.352056117052E-003   2.352056112587E-003   7.102058906023E-004   5.281092814975E-006   1.431761655978E-006   3.774679252398E-023   3.521384351966E-023   1.108531237618E-006   1.108531237910E-006   1.996984342725E-006   2.560445586987E-006   2.940231543618E-008     # MO Occupations (beta spin)
<rt_tddft>:     28.00000   3.045715275385E-010   3.006352626731E-010   3.184351115326E-002     # Dipole moment [Ne] (alpha spin)
<rt_tddft>:     28.00000  -3.915567315175E-010  -3.931927846890E-010   1.480524602998E-002     # Dipole moment [Ne] (beta spin)
<rt_tddft>:     28.00000  -8.698520397896E-011  -9.255752201582E-011   4.664875718324E-002     # Dipole moment [Ne] (total spin)
<rt_tddft>:     28.00000  -5.994356886961E-010  -5.924599766168E-010   5.619744852322E+001     # Dipole moment [Ar] (alpha spin)
<rt_tddft>:     28.00000  -6.118862157791E-010  -6.061249054131E-010   5.619228227255E+001     # Dipole moment [Ar] (beta spin)
<rt_tddft>:     28.00000  -1.211321904475E-009  -1.198584882030E-009   1.400070741187E-001     # Dipole moment [Ar] (total spin)
<rt_tddft>:     28.00000  -1.970433286925E-010  -1.925964099830E-010   5.618183311224E+001     # Dipole moment [dimer] (alpha spin)
<rt_tddft>:     28.00000  -6.097700615470E-010  -6.069314728678E-010   5.618634539559E+001     # Dipole moment [dimer] (beta spin)
<rt_tddft>:     28.00000  -8.068133902395E-010  -7.995278828508E-010   1.184547861852E-001     # Dipole moment [dimer] (total spin)
<rt_tddft>:     28.00000        ### No applied E-field ###
<rt_tddft>:     28.00000        ### Saved restart file ###
 Grid integrated density:      27.000002820343
 Requested integration accuracy:   0.10E-05
 Grid integrated density:      27.000002703334
 Requested integration accuracy:   0.10E-05
 Grid integrated density:      27.000002740031
 Requested integration accuracy:   0.10E-05
 Grid integrated density:      27.000002722760
 Requested integration accuracy:   0.10E-05
 Grid integrated density:      27.000002729121
 Requested integration accuracy:   0.10E-05
 Grid integrated density:      27.000002726369
 Requested integration accuracy:   0.10E-05
 Grid integrated density:      27.000002727451
 Requested integration accuracy:   0.10E-05
 Grid integrated density:      27.000002727011
 Requested integration accuracy:   0.10E-05
 Grid integrated density:      27.000002727187
 Requested integration accuracy:   0.10E-05
 Grid integrated density:      27.000002727116
 Requested integration accuracy:   0.10E-05
 Grid integrated density:      27.000002727144
 Requested integration accuracy:   0.10E-05
<rt_tddft>:     32.00000   2.886421358180E+001     # Enuc
<rt_tddft>:     32.00000  -9.573651712184E+002     # Ecore
<rt_tddft>:     32.00000   3.166246381760E+002     # Ecoul
<rt_tddft>:     32.00000  -4.273731159644E+001     # Exc(1)
<rt_tddft>:     32.00000   0.000000000000E+000     # Exc(2)
<rt_tddft>:     32.00000  -6.546136310570E+002     # Etot
<rt_tddft>:     32.00000   1.844473516961E+000     # Eadded
<rt_tddft>:     32.00000  -4.993388758058E+000     # Charge [Ne] (alpha spin)
<rt_tddft>:     32.00000  -9.006611241890E+000     # Charge [Ar] (alpha spin)
<rt_tddft>:     32.00000  -1.399999999995E+001     # Charge [dimer] (alpha spin)
<rt_tddft>:     32.00000  -4.004794863116E+000     # Charge [Ne] (beta spin)
<rt_tddft>:     32.00000  -8.995205136832E+000     # Charge [Ar] (beta spin)
<rt_tddft>:     32.00000  -1.299999999995E+001     # Charge [dimer] (beta spin)
<rt_tddft>:     32.00000  -8.998183621174E+000     # Charge [Ne] (total spin)
<rt_tddft>:     32.00000  -1.800181637872E+001     # Charge [Ar] (total spin)
<rt_tddft>:     32.00000  -2.699999999990E+001     # Charge [dimer] (total spin)
<rt_tddft>:     32.00000   9.999999999806E-001   9.999989447532E-001   9.999999664173E-001   9.999999526489E-001   9.999999526490E-001   9.999998481396E-001   9.959009543380E-001   9.998581786461E-001   9.868475870863E-001   9.921207226823E-001   9.921207226655E-001   9.989921661276E-001   9.989921661310E-001   9.954719091210E-001   2.638710038663E-003   2.512895376768E-003   3.396777057394E-003   3.396777003087E-003   1.045203948337E-003   2.367624583704E-003   2.367624579337E-003   6.002222519966E-003   1.098109488569E-021   4.969970736855E-020   1.185875688329E-003   1.185875687395E-003   6.513085038414E-004   2.249858780850E-005   8.657317761037E-006   8.657317611558E-006   1.561853198759E-004   1.856747950932E-019   3.866630085752E-020   1.860669262460E-004   1.860669253712E-004   2.121092852191E-004   1.602790535804E-023   5.575667923691E-023   4.528038998449E-006   4.528039054322E-006   1.968569457845E-003   3.794488436225E-003   1.736988504286E-003   1.736988501521E-003   2.876018790783E-003   7.241629121532E-006   6.405128558053E-007   2.385041309258E-023   2.739406520223E-023   6.404401771403E-007   6.404401780413E-007   9.087086086649E-007   3.270142207582E-005   9.089737248558E-007     # MO Occupations (alpha spin)
<rt_tddft>:     32.00000   9.999999999888E-001   9.999997959873E-001   9.999999666638E-001   9.999999504780E-001   9.999999504780E-001   9.999998495938E-001   5.757857240829E-005   9.998094711900E-001   9.680270545308E-001   9.583800992160E-001   9.583800992526E-001   9.990035747053E-001   9.990035747086E-001   9.953223478318E-001   4.829885345589E-003   1.917402377456E-003   8.103367817674E-003   8.103367850999E-003   1.492109562184E-002   1.584394866307E-002   1.584394867869E-002   5.326068106334E-003  -1.205885854831E-021   3.748966666940E-020   9.508011646023E-004   9.508011639070E-004   7.496127559108E-004   1.366206713820E-005   6.886564484900E-006   6.886564349135E-006   3.926106733458E-005   1.876189823919E-018   4.168783261714E-019   2.155211600131E-003   2.155211597320E-003   6.845730493388E-004   2.537096719967E-023   8.189593738066E-023   2.080104299761E-004   2.080104303102E-004   2.939145829758E-003   4.625478336088E-003   1.534676457587E-002   1.534676457745E-002   7.296971629991E-004   3.822745830245E-006   6.211905722559E-007   5.075184229032E-023   4.764963080496E-023   1.384717901409E-006   1.384717900571E-006   6.590829509108E-007   2.879933038973E-006   7.096379376498E-008     # MO Occupations (beta spin)
<rt_tddft>:     32.00000   3.548784071042E-011   2.292299358682E-011   2.466532366230E-002     # Dipole moment [Ne] (alpha spin)
<rt_tddft>:     32.00000  -4.793285023555E-011  -3.944247645877E-011  -5.794379686680E-002     # Dipole moment [Ne] (beta spin)
<rt_tddft>:     32.00000  -1.244500952513E-011  -1.651948287195E-011  -3.327847320450E-002     # Dipole moment [Ne] (total spin)
<rt_tddft>:     32.00000  -1.001348587346E-009  -1.000014419462E-009   5.627830179172E+001     # Dipole moment [Ar] (alpha spin)
<rt_tddft>:     32.00000  -1.054236500531E-009  -1.054494275974E-009   5.627052274231E+001     # Dipole moment [Ar] (beta spin)
<rt_tddft>:     32.00000  -2.055585087877E-009  -2.054508695435E-009   2.991008123717E-001     # Dipole moment [Ar] (total spin)
<rt_tddft>:     32.00000  -8.966563154282E-010  -9.037746769160E-010   5.619503568006E+001     # Dipole moment [dimer] (alpha spin)
<rt_tddft>:     32.00000  -9.912558183592E-010  -9.880412885094E-010   5.614068512606E+001     # Dipole moment [dimer] (beta spin)
<rt_tddft>:     32.00000  -1.887912133787E-009  -1.891815965425E-009   8.599708446496E-002     # Dipole moment [dimer] (total spin)
<rt_tddft>:     32.00000        ### No applied E-field ###
 Grid integrated density:      27.000002629304
 Requested integration accuracy:   0.10E-05
 Grid integrated density:      27.000002684808
 Requested integration accuracy:   0.10E-05
 Grid integrated density:      27.000002675288
 Requested integration accuracy:   0.10E-05
 Grid integrated density:      27.000002684498
 Requested integration accuracy:   0.10E-05
 Grid integrated density:      27.000002681704
 Requested integration accuracy:   0.10E-05
 Grid integrated density:      27.000002683153
 Requested integration accuracy:   0.10E-05
 Grid integrated density:      27.000002682559
 Requested integration accuracy:   0.10E-05
 Grid integrated density:      27.000002682829
 Requested integration accuracy:   0.10E-05
 Grid integrated density:      27.000002682708
 Requested integration accuracy:   0.10E-05
 Grid integrated density:      27.000002682763
 Requested integration accuracy:   0.10E-05
 Grid integrated density:      27.000002682737
 Requested integration accuracy:   0.10E-05
 Grid integrated density:      27.000002682749
 Requested integration accuracy:   0.10E-05
 Grid integrated density:      27.000002682744
 Requested integration accuracy:   0.10E-05
 Grid integrated density:      27.000002682745
 Requested integration accuracy:   0.10E-05
<rt_tddft>:     36.00000   2.886421358180E+001     # Enuc
<rt_tddft>:     36.00000  -9.561471555862E+002     # Ecore
<rt_tddft>:     36.00000   3.152627332797E+002     # Ecoul
<rt_tddft>:     36.00000  -4.259307064232E+001     # Exc(1)
<rt_tddft>:     36.00000   0.000000000000E+000     # Exc(2)
<rt_tddft>:     36.00000  -6.546132793670E+002     # Etot
<rt_tddft>:     36.00000   1.844825206920E+000     # Eadded
<rt_tddft>:     36.00000  -4.975927576436E+000     # Charge [Ne] (alpha spin)
<rt_tddft>:     36.00000  -9.024072423507E+000     # Charge [Ar] (alpha spin)
<rt_tddft>:     36.00000  -1.399999999994E+001     # Charge [dimer] (alpha spin)
<rt_tddft>:     36.00000  -3.982579142984E+000     # Charge [Ne] (beta spin)
<rt_tddft>:     36.00000  -9.017420856959E+000     # Charge [Ar] (beta spin)
<rt_tddft>:     36.00000  -1.299999999994E+001     # Charge [dimer] (beta spin)
<rt_tddft>:     36.00000  -8.958506719420E+000     # Charge [Ne] (total spin)
<rt_tddft>:     36.00000  -1.804149328047E+001     # Charge [Ar] (total spin)
<rt_tddft>:     36.00000  -2.699999999989E+001     # Charge [dimer] (total spin)
<rt_tddft>:     36.00000   9.999999999710E-001   9.999987481575E-001   9.999999655020E-001   9.999999457185E-001   9.999999457186E-001   9.999998908795E-001   9.931823507150E-001   9.998815869671E-001   9.802563728955E-001   9.748487297081E-001   9.748487297070E-001   9.988144663399E-001   9.988144663373E-001   9.958033064626E-001   5.619483647969E-003   4.293856046008E-003   6.076946906087E-003   6.076946828549E-003   4.631482137225E-003   6.822590137682E-003   6.822590172132E-003   6.987997318559E-003   2.232371243182E-021   5.559696193120E-020   1.325718575667E-003   1.325718572539E-003   1.073846926493E-003   9.042585293585E-005   1.529190727941E-005   1.529190711500E-005   1.377224568511E-004   3.354722564797E-019   7.068291552543E-020   3.443152334654E-004   3.443152315380E-004   3.273748426621E-004   3.957335177644E-023   6.926794976374E-023   6.542708843477E-005   6.542708832410E-005   1.406314843544E-003   5.344268341529E-003   1.168556843351E-002   1.168556842842E-002   9.221950269501E-004   3.041072670695E-006   1.291414301627E-006   2.203636196845E-023   2.804866005126E-023   9.999568856407E-007   9.999568858693E-007   1.642296964790E-006   3.558476568606E-005   1.251448581383E-006     # MO Occupations (alpha spin)
<rt_tddft>:     36.00000   9.999999999798E-001   9.999996856811E-001   9.999999658705E-001   9.999999444751E-001   9.999999444751E-001   9.999998904715E-001   3.390657136825E-005   9.998467393632E-001   9.790218040453E-001   9.815277488838E-001   9.815277488996E-001   9.988035502785E-001   9.988035502753E-001   9.952800457246E-001   4.636596670553E-003   3.289304446886E-003   5.706563377921E-003   5.706563396805E-003   9.189774986328E-003   9.751442718339E-003   9.751442711632E-003   1.628158291172E-003  -2.222634014661E-024   4.331782539554E-020   1.169937712884E-003   1.169937712159E-003   7.539454645346E-004   1.078692541754E-004   1.781791942061E-005   1.781791939223E-005   1.414260142638E-004   1.079148574031E-018   2.393706716552E-019   1.206137834316E-003   1.206137830553E-003   4.535757227048E-004   1.937289375665E-023   5.692227783559E-023   6.157633096571E-005   6.157633100122E-005   2.765160002733E-003   3.266281500214E-005   1.753554087843E-003   1.753554088523E-003   2.811094805578E-003   4.514691080106E-006   6.869270423344E-007   6.839106654828E-023   6.401529481458E-023   1.726347165682E-006   1.726347165071E-006   1.330985073431E-006   1.725005821960E-006   1.362001437402E-007     # MO Occupations (beta spin)
<rt_tddft>:     36.00000  -2.228760167519E-010  -2.338598513051E-010   2.455558350121E-003     # Dipole moment [Ne] (alpha spin)
<rt_tddft>:     36.00000   3.823507854343E-010   3.895859977913E-010   3.161881022937E-002     # Dipole moment [Ne] (beta spin)
<rt_tddft>:     36.00000   1.594747686824E-010   1.557261464863E-010   3.407436857950E-002     # Dipole moment [Ne] (total spin)
<rt_tddft>:     36.00000  -2.946010065859E-010  -2.899062942303E-010   5.617149556567E+001     # Dipole moment [Ar] (alpha spin)
<rt_tddft>:     36.00000  -4.677787878569E-010  -4.637201778558E-010   5.616201577630E+001     # Dipole moment [Ar] (beta spin)
<rt_tddft>:     36.00000  -7.623797944428E-010  -7.536264720861E-010   8.378762032405E-002     # Dipole moment [Ar] (total spin)
<rt_tddft>:     36.00000  -6.072238521351E-010  -6.076484265049E-010   5.617751560067E+001     # Dipole moment [dimer] (alpha spin)
<rt_tddft>:     36.00000  -2.696458810357E-010  -2.643462910350E-010   5.621985980204E+001     # Dipole moment [dimer] (beta spin)
<rt_tddft>:     36.00000  -8.768697331709E-010  -8.719947175399E-010   1.476516810644E-001     # Dipole moment [dimer] (total spin)
<rt_tddft>:     36.00000        ### No applied E-field ###
 Grid integrated density:      27.000002635258
 Requested integration accuracy:   0.10E-05
 Grid integrated density:      27.000002623139
 Requested integration accuracy:   0.10E-05
 Grid integrated density:      27.000002609928
 Requested integration accuracy:   0.10E-05
 Grid integrated density:      27.000002611586
 Requested integration accuracy:   0.10E-05
 Grid integrated density:      27.000002610517
 Requested integration accuracy:   0.10E-05
 Grid integrated density:      27.000002610890
 Requested integration accuracy:   0.10E-05
 Grid integrated density:      27.000002610744
 Requested integration accuracy:   0.10E-05
 Grid integrated density:      27.000002610810
 Requested integration accuracy:   0.10E-05
 Grid integrated density:      27.000002610785
 Requested integration accuracy:   0.10E-05
<rt_tddft>:     40.00000   2.886421358180E+001     # Enuc
<rt_tddft>:     40.00000  -9.567225684576E+002     # Ecore
<rt_tddft>:     40.00000   3.159178199752E+002     # Ecoul
<rt_tddft>:     40.00000  -4.267276992138E+001     # Exc(1)
<rt_tddft>:     40.00000   0.000000000000E+000     # Exc(2)
<rt_tddft>:     40.00000  -6.546133048220E+002     # Etot
<rt_tddft>:     40.00000   1.844799751986E+000     # Eadded
<rt_tddft>:     40.00000  -5.013598893325E+000     # Charge [Ne] (alpha spin)
<rt_tddft>:     40.00000  -8.986401106615E+000     # Charge [Ar] (alpha spin)
<rt_tddft>:     40.00000  -1.399999999994E+001     # Charge [dimer] (alpha spin)
<rt_tddft>:     40.00000  -3.996477411395E+000     # Charge [Ne] (beta spin)
<rt_tddft>:     40.00000  -9.003522588545E+000     # Charge [Ar] (beta spin)
<rt_tddft>:     40.00000  -1.299999999994E+001     # Charge [dimer] (beta spin)
<rt_tddft>:     40.00000  -9.010076304720E+000     # Charge [Ne] (total spin)
<rt_tddft>:     40.00000  -1.798992369516E+001     # Charge [Ar] (total spin)
<rt_tddft>:     40.00000  -2.699999999988E+001     # Charge [dimer] (total spin)
<rt_tddft>:     40.00000   9.999999999585E-001   9.999990045460E-001   9.999999784020E-001   9.999999391056E-001   9.999999391057E-001   9.999997632261E-001   9.897466562696E-001   9.998681961073E-001   9.750223759379E-001   9.746651613367E-001   9.746651613758E-001   9.997733142066E-001   9.997733142087E-001   9.895201789930E-001   9.366980132459E-003   4.886715860035E-003   8.423795967483E-003   8.423795888764E-003   1.135883055943E-002   1.486608146060E-002   1.486608157606E-002   1.275723972737E-002  -2.055768946762E-021   3.049924656027E-020   5.220582995304E-004   5.220582953380E-004   3.866005600306E-004   2.122618122965E-004   2.071676765199E-005   2.071676767483E-005   1.362837087892E-004   1.084236240076E-019   2.002828415064E-020   9.307263297026E-005   9.307263191311E-005   2.477039267709E-004   1.581108054111E-022   2.252260250396E-022   4.709135980445E-005   4.709135968943E-005   1.300149321098E-003   1.167742969038E-003   1.587922121529E-003   1.587922122428E-003   3.969272931122E-003   4.851211602828E-006   7.991028503348E-007   3.778018335117E-023   5.181014056226E-023   8.466821061541E-007   8.466821063059E-007   2.033548240989E-006   4.546190799484E-005   9.192655707479E-007     # MO Occupations (alpha spin)
[...]
<rt_tddft>:   2500.00000   9.999999973758E-001   9.999913438153E-001   9.999994775924E-001   9.999996395639E-001   9.999996395509E-001   9.999996251213E-001   3.831516901983E-004   9.995362380733E-001   9.737450467542E-001   9.870329575661E-001   9.870327828080E-001   9.998012732411E-001   9.998012748169E-001   9.980116123266E-001   5.809370603607E-003   3.044457070170E-003   4.206440406721E-004   4.206358554857E-004   2.687762530760E-003   7.289486330226E-003   7.288973427012E-003   2.620852477377E-003   1.347195734267E-015   1.706534684628E-015   3.173439405090E-004   3.173438979053E-004   2.400437554866E-004   1.980468616615E-004   1.010205747390E-005   1.010214520601E-005   5.705847170192E-005   4.300151639760E-016   2.060366867369E-016   5.273802772248E-004   5.273556822116E-004   1.690478434580E-003   6.844726616798E-015   7.392436256649E-014   1.097797502557E-004   1.097826896397E-004   6.899218968792E-003   3.533893090977E-003   4.488127657053E-003   4.488193618110E-003   1.378684206418E-003   2.300858122294E-005   4.931214037554E-005   2.358685384929E-014   1.100691721451E-013   3.590447815577E-006   3.590493182633E-006   9.782885290016E-005   1.375596145955E-006   2.112957513342E-006     # MO Occupations (beta spin)
<rt_tddft>:   2500.00000   1.861396417579E-006   1.890855740640E-006  -2.572663735771E-002     # Dipole moment [Ne] (alpha spin)
<rt_tddft>:   2500.00000  -1.313197678722E-006  -1.338859514056E-006   3.293033625450E-002     # Dipole moment [Ne] (beta spin)
<rt_tddft>:   2500.00000   5.481987388571E-007   5.519962265840E-007   7.203698896794E-003     # Dipole moment [Ne] (total spin)
<rt_tddft>:   2500.00000  -2.679047651279E-007  -2.716391784724E-007   5.617578848163E+001     # Dipole moment [Ar] (alpha spin)
<rt_tddft>:   2500.00000  -5.707228410947E-007  -5.814302136506E-007   5.611917699516E+001     # Dipole moment [Ar] (beta spin)
<rt_tddft>:   2500.00000  -8.386276062226E-007  -8.530693921231E-007   4.524175513492E-002     # Dipole moment [Ar] (total spin)
<rt_tddft>:   2500.00000   1.522418468271E-006   1.549168974352E-006   5.614245858139E+001     # Dipole moment [dimer] (alpha spin)
<rt_tddft>:   2500.00000  -1.627685047707E-006  -1.658322609183E-006   5.613763383806E+001     # Dipole moment [dimer] (beta spin)
<rt_tddft>:   2500.00000  -1.052665794365E-007  -1.091536348309E-007   3.036869779636E-002     # Dipole moment [dimer] (total spin)
<rt_tddft>:   2500.00000        ### No applied E-field ###
 Grid integrated density:      27.000002866486
 Requested integration accuracy:   0.10E-05
 Grid integrated density:      27.000002739711
 Requested integration accuracy:   0.10E-05
 Grid integrated density:      27.000002786649
 Requested integration accuracy:   0.10E-05
 Grid integrated density:      27.000002766460
 Requested integration accuracy:   0.10E-05
 Grid integrated density:      27.000002774648
 Requested integration accuracy:   0.10E-05
 Grid integrated density:      27.000002771273
 Requested integration accuracy:   0.10E-05
 Grid integrated density:      27.000002772622
 Requested integration accuracy:   0.10E-05
<rt_tddft>:   2504.00000   2.886421358180E+001     # Enuc
<rt_tddft>:   2504.00000  -9.558912091326E+002     # Ecore
<rt_tddft>:   2504.00000   3.149596793706E+002     # Ecoul
<rt_tddft>:   2504.00000  -4.254646763911E+001     # Exc(1)
<rt_tddft>:   2504.00000   0.000000000000E+000     # Exc(2)
<rt_tddft>:   2504.00000  -6.546137838194E+002     # Etot
<rt_tddft>:   2504.00000   1.844320754602E+000     # Eadded
<rt_tddft>:   2504.00000  -5.010520359170E+000     # Charge [Ne] (alpha spin)
<rt_tddft>:   2504.00000  -8.989479638031E+000     # Charge [Ar] (alpha spin)
<rt_tddft>:   2504.00000  -1.399999999720E+001     # Charge [dimer] (alpha spin)
<rt_tddft>:   2504.00000  -3.997214586863E+000     # Charge [Ne] (beta spin)
<rt_tddft>:   2504.00000  -9.002785410339E+000     # Charge [Ar] (beta spin)
<rt_tddft>:   2504.00000  -1.299999999720E+001     # Charge [dimer] (beta spin)
<rt_tddft>:   2504.00000  -9.007734946034E+000     # Charge [Ne] (total spin)
<rt_tddft>:   2504.00000  -1.799226504837E+001     # Charge [Ar] (total spin)
<rt_tddft>:   2504.00000  -2.699999999440E+001     # Charge [dimer] (total spin)
<rt_tddft>:   2504.00000   9.999999973557E-001   9.999989979243E-001   9.999984645396E-001   9.999999293073E-001   9.999999293060E-001   9.999990284000E-001   9.944840855826E-001   9.988976940617E-001   9.843535279055E-001   9.855198620534E-001   9.855167892694E-001   9.990980626843E-001   9.990980645931E-001   9.941126370723E-001   3.601071368691E-003   1.392207289969E-003   2.111702276600E-003   2.109979340532E-003   6.385879318227E-003   1.157861082570E-002   1.157300875441E-002   5.350062671460E-003   2.654140223436E-015   3.119537123102E-015   1.237253985488E-003   1.237339846532E-003   6.781963249268E-004   6.594987229877E-005   2.278828288404E-005   2.279386207450E-005   3.648285471974E-004   1.093733041145E-015   1.006874879951E-015   7.640474530974E-006   7.635803553815E-006   1.298114574496E-003   3.432973815819E-014   5.727949111115E-014   4.253137154918E-005   4.251903246909E-005   3.891733147372E-004   2.827312202288E-003   3.419360483606E-004   3.424632915778E-004   5.571868930525E-003   2.615386981496E-005   7.222556374315E-005   6.021930567160E-014   7.398771786293E-014   4.457689532924E-005   4.458257331957E-005   1.255430190995E-004   6.314409612949E-006   6.632042820701E-007     # MO Occupations (alpha spin)
<rt_tddft>:   2504.00000   9.999999973724E-001   9.999911675971E-001   9.999994362435E-001   9.999996409179E-001   9.999996409041E-001   9.999996035909E-001   2.164257587695E-004   9.994429738507E-001   9.664433142588E-001   9.937975547518E-001   9.937974027819E-001   9.988626510291E-001   9.988626567352E-001   9.961522846269E-001   7.283410309325E-003   2.678203336480E-003   1.594929035905E-003   1.594835231988E-003   2.256628835340E-003   7.761871344663E-004   7.760547131894E-004   1.768670835503E-003   2.793448449242E-015   3.163567827972E-015   8.728671088135E-004   8.728615382359E-004   5.658782164632E-004   5.846922908142E-005   8.099870478889E-006   8.100239501430E-006   7.277238455122E-005   3.377069024039E-016   1.556035699750E-016   6.640230596013E-004   6.640202277304E-004   3.669495668218E-003   5.598100201667E-015   8.175684385767E-014   6.744110887179E-005   6.743910120906E-005   7.189853506450E-003   1.146133911241E-002   3.352357710969E-003   3.352208249642E-003   5.716280047016E-004   1.823962221179E-005   6.271596555608E-005   2.554657887106E-014   1.108591142553E-013   4.514036070820E-006   4.514370435877E-006   8.716191396259E-005   7.915045922889E-006   2.412059459929E-006     # MO Occupations (beta spin)
<rt_tddft>:   2504.00000  -5.604702421061E-007  -5.764353010631E-007  -3.342426980896E-002     # Dipole moment [Ne] (alpha spin)
<rt_tddft>:   2504.00000   1.266861216303E-006   1.289805499475E-006  -4.087331533010E-002     # Dipole moment [Ne] (beta spin)
<rt_tddft>:   2504.00000   7.063909741971E-007   7.133701984122E-007  -7.429758513906E-002     # Dipole moment [Ne] (total spin)
<rt_tddft>:   2504.00000  -1.167030486734E-007  -1.183851439988E-007   5.638958511691E+001     # Dipole moment [Ar] (alpha spin)
<rt_tddft>:   2504.00000  -4.675521167457E-007  -4.765843144239E-007   5.626710811529E+001     # Dipole moment [Ar] (beta spin)
<rt_tddft>:   2504.00000  -5.842551654191E-007  -5.949694584227E-007   4.069695105492E-001     # Dipole moment [Ar] (total spin)
<rt_tddft>:   2504.00000  -1.149420535020E-006  -1.173014856849E-006   5.629756204106E+001     # Dipole moment [dimer] (alpha spin)
<rt_tddft>:   2504.00000   9.886355391151E-007   1.006517895485E-006   5.618924692402E+001     # Dipole moment [dimer] (beta spin)
<rt_tddft>:   2504.00000  -1.607849959047E-007  -1.664969613644E-007   2.370852434289E-001     # Dipole moment [dimer] (total spin)
<rt_tddft>:   2504.00000        ### No applied E-field ###
 Grid integrated density:      27.000002574231
 Requested integration accuracy:   0.10E-05
 Grid integrated density:      27.000002695801
 Requested integration accuracy:   0.10E-05
 Grid integrated density:      27.000002653042
 Requested integration accuracy:   0.10E-05
 Grid integrated density:      27.000002671728
 Requested integration accuracy:   0.10E-05
 Grid integrated density:      27.000002664384
 Requested integration accuracy:   0.10E-05
 Grid integrated density:      27.000002667558
 Requested integration accuracy:   0.10E-05
 Grid integrated density:      27.000002666272
 Requested integration accuracy:   0.10E-05
<rt_tddft>:   2508.00000   2.886421358180E+001     # Enuc
<rt_tddft>:   2508.00000  -9.566225226046E+002     # Ecore
<rt_tddft>:   2508.00000   3.158045514734E+002     # Ecoul
<rt_tddft>:   2508.00000  -4.265996286935E+001     # Exc(1)
<rt_tddft>:   2508.00000   0.000000000000E+000     # Exc(2)
<rt_tddft>:   2508.00000  -6.546137204187E+002     # Etot
<rt_tddft>:   2508.00000   1.844384155217E+000     # Eadded
<rt_tddft>:   2508.00000  -5.002895871815E+000     # Charge [Ne] (alpha spin)
<rt_tddft>:   2508.00000  -8.997104125382E+000     # Charge [Ar] (alpha spin)
<rt_tddft>:   2508.00000  -1.399999999720E+001     # Charge [dimer] (alpha spin)
<rt_tddft>:   2508.00000  -3.998633001991E+000     # Charge [Ne] (beta spin)
<rt_tddft>:   2508.00000  -9.001366995207E+000     # Charge [Ar] (beta spin)
<rt_tddft>:   2508.00000  -1.299999999720E+001     # Charge [dimer] (beta spin)
<rt_tddft>:   2508.00000  -9.001528873806E+000     # Charge [Ne] (total spin)
<rt_tddft>:   2508.00000  -1.799847112059E+001     # Charge [Ar] (total spin)
<rt_tddft>:   2508.00000  -2.699999999440E+001     # Charge [dimer] (total spin)
<rt_tddft>:   2508.00000   9.999999973674E-001   9.999988525869E-001   9.999985648642E-001   9.999998746670E-001   9.999998746657E-001   9.999990088808E-001   9.917168228078E-001   9.988603268150E-001   9.797772362030E-001   9.651085467169E-001   9.651031605701E-001   9.995990926933E-001   9.995990925294E-001   9.947064395159E-001   4.497733381890E-003   3.477473083598E-003   3.212976526621E-003   3.210844138493E-003   1.060295704829E-002   2.083187900192E-002   2.082580688844E-002   6.813346942314E-003   2.364871411917E-015   2.815709290023E-015   7.137417411497E-004   7.138604946914E-004   1.109198378908E-003   1.045269549346E-004   4.257144710358E-005   4.256935961898E-005   2.432498928696E-004   1.015993629575E-015   8.968417589222E-016   4.200462402322E-004   4.201107194935E-004   6.758355598008E-004   1.299900584995E-014   5.948408933009E-014   1.993079819488E-004   1.993160483369E-004   2.571860922622E-004   2.242692776026E-003   9.837566723245E-003   9.833918033515E-003   4.711127527119E-003   1.749961029370E-005   6.511729947198E-005   7.754032067337E-014   9.149621863722E-014   4.291950703013E-005   4.292318425323E-005   1.188751882489E-004   5.022388514896E-006   9.061529661927E-007     # MO Occupations (alpha spin)
<rt_tddft>:   2508.00000   9.999999973766E-001   9.999912792266E-001   9.999995247486E-001   9.999996441350E-001   9.999996441221E-001   9.999996612890E-001   2.275160712857E-004   9.993695938999E-001   9.603429159957E-001   9.924865550622E-001   9.924866784430E-001   9.996384605184E-001   9.996384691810E-001   9.937180976654E-001   1.208276837303E-002   2.133667844327E-003   3.289700655672E-003   3.289519839686E-003   1.189193354589E-002   2.407065325854E-003   2.407379957184E-003   4.684201475227E-003   2.116408264703E-015   2.436681207692E-015   2.098928243093E-004   2.098805914874E-004   5.479480737281E-004   5.885996639389E-005   3.369808601120E-005   3.369766755718E-005   6.880631919244E-005   2.223130303635E-016   1.353865009138E-016   1.589997556094E-004   1.589980687873E-004   4.432369765696E-003   8.228085626033E-016   6.035294863895E-014   8.701219309702E-006   8.701265868530E-006   6.559582071700E-003   1.646068152300E-003   1.762166746160E-003   1.762334248177E-003   2.080571126117E-003   1.908495853637E-005   5.881390714078E-005   1.636475993735E-014   9.551433069321E-014   4.905953607158E-006   4.906189857691E-006   7.522807191380E-005   8.902455359295E-006   2.604961403403E-006     # MO Occupations (beta spin)
<rt_tddft>:   2508.00000  -6.399051743251E-010  -1.009985600381E-009  -2.834815653903E-002     # Dipole moment [Ne] (alpha spin)
<rt_tddft>:   2508.00000   4.742883545279E-007   4.797748485776E-007   4.958589826124E-002     # Dipole moment [Ne] (beta spin)
<rt_tddft>:   2508.00000   4.736484493536E-007   4.787648629772E-007   2.123774172221E-002     # Dipole moment [Ne] (total spin)
<rt_tddft>:   2508.00000  -1.866582418509E-007  -1.902416236141E-007   5.624733098317E+001     # Dipole moment [Ar] (alpha spin)
<rt_tddft>:   2508.00000  -3.986912589880E-007  -4.061448119456E-007   5.620472160040E+001     # Dipole moment [Ar] (beta spin)
<rt_tddft>:   2508.00000  -5.853495008389E-007  -5.963864355597E-007   2.023288619172E-001     # Dipole moment [Ar] (total spin)
<rt_tddft>:   2508.00000  -4.239440512692E-007  -4.297083782251E-007   5.622758025429E+001     # Dipole moment [dimer] (alpha spin)
<rt_tddft>:   2508.00000   1.419553990265E-007   1.411895979003E-007   5.621845039805E+001     # Dipole moment [dimer] (beta spin)
<rt_tddft>:   2508.00000  -2.819886522427E-007  -2.885187803248E-007   1.963069306934E-001     # Dipole moment [dimer] (total spin)
<rt_tddft>:   2508.00000        ### No applied E-field ###
 Grid integrated density:      27.000002712189
 Requested integration accuracy:   0.10E-05
 Grid integrated density:      27.000002609921
 Requested integration accuracy:   0.10E-05
 Grid integrated density:      27.000002641166
 Requested integration accuracy:   0.10E-05
 Grid integrated density:      27.000002625035
 Requested integration accuracy:   0.10E-05
 Grid integrated density:      27.000002631056
 Requested integration accuracy:   0.10E-05
 Grid integrated density:      27.000002628301
 Requested integration accuracy:   0.10E-05
 Grid integrated density:      27.000002629443
 Requested integration accuracy:   0.10E-05
<rt_tddft>:   2512.00000   2.886421358180E+001     # Enuc
<rt_tddft>:   2512.00000  -9.574675929588E+002     # Ecore
<rt_tddft>:   2512.00000   3.167547732342E+002     # Ecoul
<rt_tddft>:   2512.00000  -4.276515950709E+001     # Exc(1)
<rt_tddft>:   2512.00000   0.000000000000E+000     # Exc(2)
<rt_tddft>:   2512.00000  -6.546137656499E+002     # Etot
<rt_tddft>:   2512.00000   1.844338924063E+000     # Eadded
<rt_tddft>:   2512.00000  -5.001136809046E+000     # Charge [Ne] (alpha spin)
<rt_tddft>:   2512.00000  -8.998863188147E+000     # Charge [Ar] (alpha spin)
<rt_tddft>:   2512.00000  -1.399999999719E+001     # Charge [dimer] (alpha spin)
<rt_tddft>:   2512.00000  -3.990659905141E+000     # Charge [Ne] (beta spin)
<rt_tddft>:   2512.00000  -9.009340092054E+000     # Charge [Ar] (beta spin)
<rt_tddft>:   2512.00000  -1.299999999720E+001     # Charge [dimer] (beta spin)
<rt_tddft>:   2512.00000  -8.991796714187E+000     # Charge [Ne] (total spin)
<rt_tddft>:   2512.00000  -1.800820328020E+001     # Charge [Ar] (total spin)
<rt_tddft>:   2512.00000  -2.699999999439E+001     # Charge [dimer] (total spin)
<rt_tddft>:   2512.00000   9.999999973654E-001   9.999989785289E-001   9.999984225495E-001   9.999999462765E-001   9.999999462750E-001   9.999989236911E-001   9.964789052315E-001   9.989611203798E-001   9.796256136902E-001   9.579575575142E-001   9.579541761970E-001   9.991822617040E-001   9.991822608715E-001   9.972938211621E-001   2.891983897365E-003   1.274856217152E-003   4.268365981829E-003   4.266391794597E-003   8.744387809378E-003   2.913229534934E-002   2.912802472999E-002   8.229285397753E-003   1.266936151076E-015   1.791138783008E-015   1.518429337443E-003   1.518549971204E-003   1.840016057091E-003   1.229670155547E-004   2.831428050653E-005   2.831587481023E-005   9.223700616493E-005   1.508894373872E-015   1.409405615493E-015   3.457080729293E-004   3.457527103702E-004   4.170721853540E-004   2.322313821401E-014   1.035865127324E-013   6.490559962308E-005   6.493419274146E-005   1.528617463716E-004   2.772181777818E-003   7.468926323831E-003   7.467741475138E-003   8.673468305663E-004   2.027788029075E-005   7.612588625067E-005   6.940817445165E-014   8.127756597060E-014   3.859597790070E-005   3.859936783221E-005   1.333476401305E-004   7.554748031594E-006   1.712620675191E-006     # MO Occupations (alpha spin)
<rt_tddft>:   2512.00000   9.999999973808E-001   9.999910814454E-001   9.999995383801E-001   9.999995652289E-001   9.999995652143E-001   9.999994793428E-001   4.290035802483E-005   9.994648156412E-001   9.484747757576E-001   9.839937519762E-001   9.839939304859E-001   9.990779889108E-001   9.990779895488E-001   9.964653166942E-001   1.400800892928E-002   1.886386590769E-003   3.747989215539E-003   3.747771998746E-003   1.351153136443E-002   7.970938417086E-003   7.971533953503E-003   5.946727756963E-003   1.846319990454E-015   2.233357495083E-015   1.123527399250E-003   1.123508394168E-003   1.643266847587E-004   1.649463185155E-004   3.607123086344E-005   3.607123061898E-005   7.105112068919E-005   2.451810806407E-016   1.963263491015E-016   1.985361506092E-004   1.985245528231E-004   5.968198000592E-003   1.079671367245E-015   1.147189938481E-013   4.432556002141E-006   4.432880540915E-006   5.311392071009E-003   8.178497262747E-003   3.837422459989E-003   3.837463653473E-003   1.855594424647E-004   1.353763483481E-005   5.360989887234E-005   1.778873137286E-014   1.014799382973E-013   9.492010840228E-006   9.492387640329E-006   9.245767457247E-005   3.580090653549E-006   2.281496928254E-006     # MO Occupations (beta spin)
<rt_tddft>:   2512.00000   1.117941364102E-008   8.266584633516E-009  -1.216455891600E-002     # Dipole moment [Ne] (alpha spin)
<rt_tddft>:   2512.00000  -9.158792193527E-007  -9.315937849138E-007  -6.306352150314E-002     # Dipole moment [Ne] (beta spin)
<rt_tddft>:   2512.00000  -9.046998057116E-007  -9.233272002803E-007  -7.522808041915E-002     # Dipole moment [Ne] (total spin)
<rt_tddft>:   2512.00000  -1.112663656139E-007  -1.135754624945E-007   5.626898297582E+001     # Dipole moment [Ar] (alpha spin)
<rt_tddft>:   2512.00000  -3.810685189890E-007  -3.880125900882E-007   5.615683331445E+001     # Dipole moment [Ar] (beta spin)
<rt_tddft>:   2512.00000  -4.923348846029E-007  -5.015880525827E-007   1.760925686247E-001     # Dipole moment [Ar] (total spin)
<rt_tddft>:   2512.00000   2.953179163100E-007   2.972863841993E-007   5.623626740034E+001     # Dipole moment [dimer] (alpha spin)
<rt_tddft>:   2512.00000  -1.376664106926E-006  -1.401351970418E-006   5.607786659195E+001     # Dipole moment [dimer] (beta spin)
<rt_tddft>:   2512.00000  -1.081346190616E-006  -1.104065586219E-006   6.441027063698E-002     # Dipole moment [dimer] (total spin)
<rt_tddft>:   2512.00000        ### No applied E-field ###
 Grid integrated density:      27.000002762177
 Requested integration accuracy:   0.10E-05
